600
 energy: -1050.467547780594 gnorm: 0.000676066330 xtb: 6.3.0 (preview)
C          30.46963109034681    15.51278655657787     5.35294796845195
C          31.10148068725001    14.28465496574596     5.35033661500274
C          30.83794554227197    13.38293752443175     6.36942701814117
C          29.92776427480567    13.70516443205547     7.36919374523865
C          29.29959486955651    14.93433153753648     7.35858429077443
C          29.56633186757053    15.86349408788496     6.35352457861174
O          31.39140236920904    12.10790867756105     6.43042765207722
C          28.91416506139795    17.17958659380577     6.34296229776614
C          29.60117801925811    18.31320441669613     5.91478481059310
C          29.00693113095469    19.56145203858846     5.90819974080606
C          27.69597608631744    19.69127499224692     6.33974015446505
C          26.98633775459249    18.56591086892635     6.75420391447798
C          27.59046798531919    17.32757199036380     6.75706869024753
O          26.96267229713850    20.85975893149702     6.36664606211442
C          32.68406973073515    11.92305780222322     6.25931975728161
N          33.48590883303558    12.94830591344677     6.01747203382211
C          27.44623225320814    22.07656027413621     6.25031774395422
N          28.74210682293084    22.33807176675712     6.25609325248390
H          30.67184954984063    16.20345102221284     4.54925213595483
H          31.78600840105073    14.03371129414728     4.55843219911178
H          29.73060155695026    12.98606208216663     8.14931311445589
H          28.61560935782189    15.18589762185004     8.15505314489894
H          30.62899374314468    18.22619011533593     5.59696232412298
H          29.55645512749550    20.42423773962441     5.57561675256398
H          25.96064282338807    18.68408422273462     7.06725935303172
H          27.02369310794632    16.46144959587840     7.06342882644006
C          30.97062771797997    19.73694833344616     2.11022552769984
C          30.32655256323346    20.95802335872454     2.14573655313653
C          30.60369576641764    21.84751498762433     3.17200407102172
C          31.50058197569404    21.50563164706106     4.17367300942029
C          32.13200607011023    20.27782030062181     4.13227876104792
C          31.89219130370059    19.37818623499355     3.09332734043610
O          30.07970359687410    23.13538212040631     3.17704369790190
C          32.61142477863195    18.09758595754681     3.02363003168668
C          32.01811880346993    16.96030283891040     2.47905740318117
C          32.69607210228185    15.75702899533631     2.39595046649750
C          33.99189258821739    15.66844908157745     2.88285708277012
C          34.60567020851789    16.79552667511890     3.42099366558822
C          33.92397422078511    17.99200043821422     3.48604666095223
O          34.79031179908737    14.53735708674823     2.82929955132636
C          28.77130657123741    23.30579818554226     3.16661577421096
N          27.97202743761716    22.26529966096025     3.31615174295222
C          34.31973422958819    13.31573860295779     2.97303719468907
N          33.02260609739589    13.08056083835566     3.03672086235171
H          30.77710242756445    19.06778402643243     1.28601340930386
H          29.62319837978107    21.23119148170819     1.37467098139934
H          31.68716721407866    22.20306623069492     4.97490768830798
H          32.80990750720846    20.01094025765778     4.92869841338001
H          31.00061824514111    17.00725556056683     2.12048779958116
H          32.21343804411792    14.89495214173606     1.96850170174019
H          35.61748668893676    16.71431853285397     3.78557246774436
H          34.42515606459112    18.86129673698615     3.88299352727386
C          49.20478893608114     4.24448151242437     5.80053249467649
C          49.94754980796495     3.08891222711924     5.95146563938109
C          51.18127976123528     3.13082006655166     6.57760846631742
C          51.66613684203543     4.33674002588106     7.05394570843993
C          50.92208065251706     5.49157822311982     6.90848084422457
C          49.68098149569621     5.46376136042629     6.27740331281430
C          48.86868164044701     6.68149353951389     6.14213957188318
C          48.11995629599814     6.92153331916905     4.99190412082597
C          47.30100860506929     8.02870871121929     4.89224259414805
C          47.22282059510797     8.91418750310811     5.95586913739798
C          47.98159895722294     8.71392671663420     7.09785702097466
C          48.79878386704714     7.60415958807118     7.18341941619683
O          46.29284045920673     9.94835383995838     5.87709629984021
C          46.70528555917510    11.18773818182942     6.04248067312981
N          47.99311008541827    11.44094700232341     6.17302793150866
H          48.23319921747842     4.20068922314465     5.33067752706966
H          49.56023417482326     2.14989371689640     5.58312981727512
H          52.62982760748919     4.37653042979342     7.54015064906493
H          51.31321715119297     6.42952343895437     7.27257520442532
H          48.18449446353101     6.23647929663264     4.16052517471348
H          46.72128685553009     8.22167307691675     4.00431827884726
H          47.91701906062163     9.41423822897417     7.91598198347074
H          49.36266209130060     7.43196601055618     8.08796731505942
C          50.58826636466470     8.22146930936851     2.75419024273955
C          49.97903585017952     9.45575451752956     2.63771339807623
C          50.05626278379820    10.35330407017832     3.69006385511846
C          50.71536814729271    10.01240646711878     4.86139504143575
C          51.32588060504622     8.77865446852725     4.96251828808877
C          51.28357175976265     7.86853264605929     3.90829932680090
O          49.55751425839949    11.64903190030381     3.58886082033104
C          51.98320404418062     6.57848748016181     3.99364280712073
C          51.41921138818692     5.41946790192149     3.46648222062587
C          52.09216974613912     4.21478277013937     3.53161805251097
C          53.34395999638011     4.14668763166523     4.11883662656818
C          53.91668584317779     5.29214264772126     4.64401427979213
C          53.24218305177160     6.49689043136711     4.58419859044051
C          48.27920986631432    11.82264106366075     3.34673584532343
N          47.48420576545124    10.77974558881945     3.17210082699304
H          50.55327629535085     7.53410944617211     1.92222437391547
H          49.45664598262772     9.72877564485094     1.73455952623629
H          50.73122099664702    10.72122568390087     5.67310488181047
H          51.83445447427853     8.51256180881446     5.87653049987167
H          50.43769798120610     5.46144916836495     3.01895149287421
H          51.63829469266835     3.32351326115422     3.12382123739176
H          54.89588328808340     5.24689416688223     5.09860179827271
H          53.70391332401161     7.39102234881836     4.97679674033345
C          30.29727063485958    38.91937469945192     5.76872333554372
C          30.91177954583994    37.68807717873855     5.65075638931263
C          30.62308186319714    36.69563547916358     6.57392417253629
C          29.71430861118940    36.92696132271912     7.59710621006131
C          29.10060466481689    38.15938749381863     7.70010601754739
C          29.38457005479549    39.17616983719615     6.79025165950155
O          31.16063061860719    35.41784782110153     6.47992863687559
C          28.73098201886270    40.48834284761143     6.90357727487044
C          29.43684778668742    41.65935061896808     6.63713475020054
C          28.82341794900754    42.89268788568594     6.74900534884020
C          27.49431784371419    42.97947936138727     7.12698286503017
C          26.78068172158326    41.82209668381474     7.38993393649200
C          27.39264811463960    40.58761782654933     7.27979728166431
C          32.45747130583261    35.26906581422171     6.30632197284211
N          33.27206311137370    36.30623023608985     6.39440877271671
H          30.51526308759055    39.68771441200118     5.04273612063684
H          31.60589557341432    37.48917639183505     4.85017583742370
H          29.50148492067236    36.13908421443593     8.30309760018118
H          28.41144444061441    38.34262245048718     8.51087405427005
H          30.47798905985814    41.60363931162625     6.35698174450193
H          29.38720008469655    43.78927333535117     6.53837851797966
H          25.74156476323682    41.88228843374498     7.67978108249113
H          26.82312507789513    39.68889090167655     7.46602331665018
C          31.42108879254861    42.66774884357471     2.75872874948011
C          30.79146858686716    43.89427497109128     2.85604138728724
C          30.92555279844358    44.65819062268172     4.00288072714442
C          31.69237747485061    44.18395548070916     5.05394018782476
C          32.31709543378307    42.95422806899556     4.96123887423127
C          32.19392212700483    42.17735356266798     3.81000996650840
C          32.87495214471300    40.87867352590417     3.70163241533965
C          32.29528162861087    39.81868304948778     3.00780791396421
C          32.93835433237297    38.60075695859285     2.88299927168416
C          34.18401211981078    38.42648557310070     3.46663560317488
C          34.77983014456318    39.47105846859647     4.16439008613289
C          34.12922261877436    40.68098210058415     4.27894166698361
O          34.96127087976156    37.28969120111645     3.32994997139888
C          34.46423553946426    36.07453488509335     3.24078553899214
N          33.17362631691245    35.83587241365895     3.37780757308872
H          31.33309726038580    42.09448075295132     1.84774774779113
H          30.19879181654129    44.25965617463265     2.03006225567712
H          31.80634330668059    44.77537768176430     5.95128950179802
H          32.89569719711411    42.58536857195536     5.79563829938399
H          31.31871890855047    39.93785225836895     2.56220648689625
H          32.47416986085786    37.79591643296829     2.33706198630710
H          35.75323890334395    39.31547439271061     4.60189897631523
H          34.61377794761572    41.49193344340330     4.80094374578990
C          49.42271150502641    26.74839288021381     4.67710333217786
C          50.12896594685247    25.56287061014649     4.63964226765638
C          50.98611089037727    25.23865463738047     5.68236323811427
C          51.17732932862410    26.12639000996316     6.73030773708981
C          50.46809704768551    27.31099901675968     6.75455956733384
C          49.55645115918684    27.62809908685198     5.74979393279500
O          51.53929837743242    23.96564233950673     5.67326388537506
C          48.70976435157566    28.82584813138589     5.85334152533458
C          48.36382317165175    29.57463426662234     4.73080439961946
C          47.53419738885722    30.67536449726753     4.83331226507522
C          47.02606180871514    31.03053021926663     6.07270423230448
C          47.35950003321840    30.30335263901103     7.20514975032698
C          48.19888250040978    29.21252174887513     7.09208777456385
O          46.08711918330770    32.06018234784216     6.19986778888452
C          52.81433352291145    23.79247788851880     5.95597573640797
N          53.60833342367831    24.83616947397892     6.11765971100675
C          46.50587886844475    33.30703345937252     6.15700907185311
N          47.79909901242801    33.55901360848116     6.04086908495112
H          48.72906308260644    26.97770594560813     3.88271656133867
H          50.02595375233345    24.87354489499312     3.81756329674309
H          51.86313028324954    25.88376392463039     7.52564998998947
H          50.62320036234605    27.99902854293339     7.57196325104599
H          48.76312439536559    29.30522760123501     3.76536918799120
H          47.28614435711084    31.25680200332545     3.96108804952703
H          46.95014800203275    30.59097119673330     8.16159646870318
H          48.43679452622538    28.63520802360745     7.97269892756105
C          51.42523933025122    31.16077687261545     1.99726707431949
C          50.82617560011755    32.39925155466457     1.87197435547344
C          50.27131179991301    33.00369971229480     2.98886871328454
C          50.31189259825238    32.37739615857838     4.22520307424292
C          50.93118337784071    31.14812855224408     4.34197552280432
C          51.49289922846589    30.51935652709449     3.23319967605718
O          49.75961583003261    34.29695762625329     2.86914074594086
C          52.18143639636317    29.22561436241336     3.35203958108579
C          52.05982648460301    28.26181936323618     2.35396554915340
C          52.78961071226645    27.08990640317007     2.39943520594369
C          53.65540366420817    26.87125219012006     3.45929906649126
C          53.75353438273007    27.79385199468081     4.49144432258066
C          53.01690346189232    28.95976815774767     4.43537450913632
O          54.52768409081949    25.79134890728982     3.50181063580508
C          48.46548875338642    34.46893249073812     3.03907303375695
N          47.66083157880190    33.41795308400962     3.03734719646412
C          54.08533882170686    24.57037457980636     3.30746140013846
N          52.80597916881418    24.34402730363977     3.06931979595167
H          51.87261105201991    30.69805010342949     1.13046096995897
H          50.79104904644197    32.90484950701019     0.91922103543782
H          49.85978150306640    32.85267425765487     5.08066086769553
H          50.96267352829297    30.66103785176589     5.30421893934169
H          51.38597441713704    28.43169340026872     1.52764134666893
H          52.69959623845050    26.35773266987334     1.61361965193447
H          54.41537202355100    27.58167711853459     5.31557567325067
H          53.11851019812276    29.69199328828679     5.22166799234313
C          32.30070492151487     6.78021848437397     5.76883763827351
C          33.06004778649066     7.92779974584100     5.65013204737769
C          34.06412700897364     8.17421748091686     6.57296591474457
C          34.31821805045124     7.27194047076179     7.59650423632256
C          33.55749080514681     6.12449072880350     7.70024892202550
C          32.53463481591515     5.86186174838494     6.79078890642080
O          34.90210177591614     9.27847879582379     6.47841507640447
C          31.72462539590633     4.64011990071341     6.90500846239818
C          30.35751670457703     4.66632420068741     6.63885992632943
C          29.59567397699583     3.51880133484082     6.75159829532021
C          30.18464567211987     2.32435357776168     7.13016968493348
C          31.54382683628685     2.28461013869032     7.39284296019050
C          32.30739471891759     3.43144099952140     7.28183939436759
C          34.38268421144272    10.47597452599811     6.30439669057448
N          33.07716512711626    10.66297016767284     6.39198862500485
H          31.52609295601714     6.58467944262785     5.04311806786485
H          32.88519376938093     8.62802892635066     4.84926635844437
H          35.10716963759401     7.48173154178408     8.30220410570885
H          33.74340397075265     5.43638967941290     8.51130704798898
H          29.88553331327733     5.59587026581252     6.35825451219429
H          28.53728615642820     3.55906364952711     6.54119392957276
H          32.01092780716812     1.35459234699522     7.68315639185867
H          33.37049769917861     3.38723966443114     7.46786610616737
C          28.49518038147989     5.87865005086247     2.75707658568086
C          27.74789962697180     4.72006780929036     2.85463162182958
C          27.01862925924774     4.45480487115503     4.00118573424984
C          27.04514962143696     5.35663506007561     5.05172748678057
C          27.79767840439231     6.51255431396700     4.95880563362896
C          28.53270252846174     6.79375514628373     3.80784910175391
C          29.31675509467358     8.03293912359812     3.69925060768983
C          30.52491035997739     8.06075305222362     3.00602452192817
C          31.25806179754201     9.22666331998433     2.88105245263334
C          30.78573767791623    10.39274825284616     3.46397714173154
C          29.58283912210121    10.38664678059849     4.16110941159886
C          28.86037311221072     9.21822581661311     4.27577799520394
O          31.38156517364959    11.63428456369397     3.32718205882772
C          32.68243919163370    11.81151312937786     3.23843997324398
N          33.53451963484850    10.81323352952604     3.37553512242910
H          29.03614336917881     6.08862016804856     1.84628727352038
H          27.72840470570245     4.02360890769130     2.02905607926703
H          26.47543337227303     5.16009450884700     5.94883338849633
H          27.82724328969582     7.19856587564889     5.79281476136779
H          30.91032966739296     7.15527982951712     2.56105209289439
H          32.18743486545722     9.22695475337031     2.33558069727899
H          29.23058749416931    11.30759265521796     4.59804877616921
H          27.91550777171319     9.23251965171948     4.79726161514907
C          33.27624149079957    29.42883466834797     4.67127881936640
C          33.95028438546158    30.63292987171450     4.63361740127824
C          33.79891042001610    31.53980543220180     5.67371278988503
C          32.93051607540113    31.26413959799007     6.71905081713164
C          32.25879649087663    30.05784163596036     6.74351708132004
C          32.44342636671190    29.10745458573608     5.74159574530091
O          34.62536520710886    32.65492530981681     5.66468410152561
C          31.82928565750709    27.77546959037652     5.84578370743349
C          31.35823516923204    27.09890918130649     4.72289869532388
C          30.82098808790005    25.82962357220089     4.82596037935335
C          30.76392561227687    25.21424565681371     6.06633042135488
C          31.22170831267916    25.86948514682403     7.19920940835003
C          31.74576260166889    27.14218136812562     7.08551854912423
O          30.34338862733917    23.88571196785884     6.19384931659532
C          34.13840528580049    33.84669278619798     5.94429123330571
N          32.83751946280689    34.01394689638899     6.10432158385100
C          29.05432407861145    23.62398083059561     6.15362906649768
N          28.18869508056522    24.61739569446910     6.03887114590374
H          33.42728672621871    28.71159694254449     3.87910693231469
H          34.60190186082696    30.88630338682826     3.81338806672407
H          32.79494113573087    31.98117996379687     7.51227438271035
H          31.58235225653301    29.85017479081382     7.55892518501499
H          31.39466471432314    27.57769331988615     3.75670615150728
H          30.44513545299770    25.32181159246420     3.95347562083492
H          31.17430652844159    25.37309759725908     8.15652194565317
H          32.12299506684393    27.63903550400063     7.96654375556750
C          28.45608263873031    28.95060898738918     1.99325021552063
C          27.68230608586380    27.81288322005407     1.86979362531612
C          27.43386158641460    27.03342014270598     2.98841869346986
C          27.95449314754683    27.38445159749104     4.22459449267707
C          28.71028851751506    28.53503849489943     4.33946896241137
C          28.97614794748422    29.33275726114864     3.22896705605457
O          26.56898277189498    25.94394857856734     2.87064612466817
C          29.75277606653430    30.57582950902236     3.34555067318940
C          30.65028961908561    30.94894563776161     2.34802578670038
C          31.30060760915045    32.16685122301915     2.39087157109939
C          31.05525652743742    33.02943968595231     3.44749189785952
C          30.20511620999689    32.65664267467923     4.47922394827039
C          29.56347837432920    31.43575725690127     4.42581371315510
O          31.55441789989530    34.32483376251251     3.48692929768583
C          27.06756234550766    24.73720560451806     3.03893217171615
N          28.38011415247021    24.56619529142950     3.03531974674894
C          32.83310392113466    34.55194881223287     3.29311010864271
N          33.66927405928008    33.55685716527609     3.05801091238491
H          28.63499426802979    29.56699509782829     1.12510613919764
H          27.26326243170031    27.52747824521763     0.91713941783839
H          27.76710522328602    26.75753326568924     5.08131310753287
H          29.11523764555390    28.80805901902531     5.30156577621320
H          30.84144287067357    30.27778265183335     1.52416720891452
H          31.98129232828225    32.45223732094450     1.60544795332804
H          30.05655712482885    33.33861488844514     5.30086024095032
H          28.87692547587442    31.16034084153499     5.21164643639449
C          52.48689149805535    18.63011277576842     5.36677463906804
C          53.23388396580909    19.79180210662802     5.36624195575256
C          54.14333298083409    20.01516902855258     6.38806170280808
C          54.31687723783033    19.06606546605306     7.38850261129671
C          53.56713559628907    17.90705258561707     7.37583397173898
C          52.63225355640115    17.67275774745872     6.36799122816291
O          54.96998467577089    21.13252322868713     6.45132050730629
C          51.81913330342152    16.44956742209300     6.35514609466011
C          50.49531824578272    16.47709430336624     5.92247051873601
C          49.71193154457702    15.33802289435677     5.91347532047557
C          50.25396209570991    14.13813760737377     6.34725643335047
C          51.58196775729636    14.08687435747850     6.76623703396502
C          52.35189069413327    15.22954324739031     6.77137833582383
O          49.60893090407731    12.91864296034248     6.37205067139108
C          54.48338594053540    22.34397567658019     6.27794470528301
N          53.19502571468994    22.52440872705246     6.03270201017479
C          48.31344271358919    12.72925263958042     6.25438997113724
N          47.43924781166497    13.72095693018097     6.26014905764124
H          51.79022913577738    18.45941128389621     4.56094991313605
H          53.11079983409074    20.50981418965448     4.57380917759321
H          55.03574785286486    19.25539471300283     8.17077525230228
H          53.68924649816854    17.18915311269103     8.17282356449327
H          50.05745646360744    17.41045012056684     5.60292635287842
H          48.69111486230749    15.38203811139338     5.57734489781968
H          51.99178091388217    13.13976484787141     7.08097344557086
H          53.38434729904337    15.17222085592627     7.08122443673317
C          48.58122496654768    16.95269858349547     2.11713859394749
C          47.84535352681206    15.78460726130360     2.15156703846510
C          46.93515715978641    15.58001758812777     3.17670762033703
C          46.78186474838652    16.52759395547112     4.17833857515305
C          47.52983392496483    17.68812712723065     4.13799150504649
C          48.43019869548078    17.93009261479411     3.10016968630607
O          46.08151469424425    14.48253821035784     3.18066948889518
C          49.18001783460619    19.19308198571690     3.03144556186926
C          50.46251409006425    19.24747192223991     2.48902669305133
C          51.16589709641996    20.43610463350196     2.40663331625610
C          50.59399251311476    21.60289289440748     2.89202505747355
C          49.31015302393420    21.57131639692777     3.42807452709802
C          48.61458161038524    20.38281278006307     3.49249255180485
O          51.17465646804473    22.85978123205004     2.83871595937521
C          46.58778212362126    13.26407638931557     3.16988629489308
N          47.88837644401768    13.09167951017771     3.32008453800083
C          52.46757371132388    23.06278555859809     2.98577350414161
N          53.31928659050526    22.05677304797430     3.05227618850405
H          49.25860626285757    17.11959406539557     1.29381503221250
H          47.96118408020430    15.03898121904243     1.38053684434445
H          46.08359983360707    16.34050834493300     4.97872872163783
H          47.42127031202791    18.40862036758999     4.93433646203142
H          50.93103705308229    18.34258023322224     2.13160530421091
H          52.15452728193768    20.44889486161979     1.98086748534350
H          48.87408904582259    22.48839008486794     3.79154242433043
H          47.61051154818619    20.38244600245115     3.88780942052028
C          52.87774965685388    40.48320083103730     5.79589340532927
C          53.50841498304259    41.70362251673168     5.94635792007015
C          52.85675618826603    42.75171849256200     6.57304503762099
C          51.57014332967923    42.56988925149822     7.05032646623555
C          50.94072289137467    41.34873434050927     6.90524321150116
C          51.58387295084248    40.28718884344690     6.27369913850454
C          50.93416552604220    38.97543403277923     6.13891271699073
C          51.09979972013382    38.20653641244693     4.98886187224967
C          50.54949983743207    36.94409002473368     4.88968576765616
C          49.82146298588459    36.43453731099617     5.95354794937701
C          49.61620040324962    37.19233523460157     7.09530106424998
C          50.16977625887005    38.45447763659583     7.18044825827482
O          49.38992264935328    35.11232221767728     5.87540033199294
C          48.11019870286066    34.85065991210482     6.04093149363143
N          47.24746796734464    35.83992774268151     6.17010738855524
H          53.40037859174627    39.66316770350687     5.32571280608616
H          54.51514527326558    41.83671430532362     5.57727914079158
H          51.05498335722918    43.38506773458832     7.53691600691661
H          49.93297930963849    41.21953416663239     7.27000597746912
H          51.66093211334522    38.60425638550252     4.15723482961564
H          50.67180101033117    36.34521007896221     4.00193852766054
H          49.04175444246771    36.78696305296143     7.91360968967363
H          50.03756996725487    39.02923699707222     8.08487507303067
C          48.74055927464367    39.69652417838547     2.75173445134196
C          47.97635460043566    38.55174763736868     2.63470521239331
C          47.16041994807297    38.16934282022184     3.68684045735466
C          47.12604417419665    38.91000049170665     4.85854765263543
C          47.88922402246830    40.05554663714919     4.96026607783345
C          48.69849260342068    40.47457739906218     3.90622535576186
O          46.28766185311552    37.08957289454896     3.58511647251286
C          49.46565618394076    41.72558845025872     3.99225067753683
C          50.75125455619353    41.81736272913466     3.46487188662224
C          51.45776463022830    43.00264571414201     3.53069961230055
C          50.89071123516421    44.12020342194528     4.11888343720188
C          49.61250162948866    44.04276818246143     4.64431479465569
C          48.90669104792081    42.85613244782606     4.58375961736007
C          46.77651456120831    35.89557758903821     3.34393107532282
N          48.07717028613776    35.72835249916550     3.16927065325245
H          49.35328420267953    40.01036311851952     1.91991225834758
H          48.00115872134131    37.96322741188041     1.73129264907776
H          46.50427551370734    38.56888975043292     5.67008150668517
H          47.86543697304760    40.62852200867417     5.87460110014287
H          51.20578569936094    40.94679091596866     3.01662698493394
H          49.16198969365853    44.91294392817770     5.09968756446668
H          47.90158227370793    42.80841816901760     4.97655068411908
C          19.65170539028928    25.54605380674977     5.80048031974829
C          18.27960446898401    25.48031281312363     5.95160277843742
C          17.69933024919244    24.39075383137331     6.57773346116243
C          18.50152609148111    23.36801334555838     7.05388030582326
C          19.87363718470634    23.43523233691117     6.90821234000729
C          20.46980224606065    24.52412736290094     6.27713184984993
C          21.93050325142355    24.61897539934721     6.14162243064412
C          22.51244988971623    25.14771703959352     4.99139464802217
C          23.88072481044574    25.30358194492944     4.89150632705172
C          24.68693604075342    24.92838980775594     5.95487095904100
C          24.13442139544855    24.37099283273411     7.09680901544675
C          22.76477570435456    24.21800950778085     7.18262610439922
O          26.04747760711546    25.21696406407436     5.87599057181522
C          26.91479868490047    24.24011890634215     6.04046466214154
N          26.49047691000485    22.99804277497060     6.17012727002280
H          20.09933521135740    26.40951943383215     5.33066942347075
H          17.65984993629586    26.28516867424086     5.58343250182930
H          18.05436631872703    22.51340495890613     7.54006103911453
H          20.49055068015243    22.62760397324284     7.27214658656024
H          21.88671412675635    25.43447215262274     4.16020128362220
H          24.33745502162171    25.70946768409316     4.00359954181147
H          24.77341242540332    24.07660246008528     7.91471252383223
H          22.33395959447904    23.81549342715012     8.08716775978270
C          22.40403253010210    22.36066136904693     2.75200593629737
C          23.77754183757744    22.27145538624869     2.63492018094727
C          24.51682255111993    21.75599686949861     3.68694581358451
C          23.89267203827547    21.35556771897138     4.85858462033261
C          22.51898204909554    21.44341169532320     4.96033089761563
C          21.75135379570282    21.93485955107685     3.90642728717591
O          25.88834311849908    21.54037196543986     3.58503585996502