602
 energy: -1056.237637508973 gnorm: 0.000550571159 xtb: 6.3.0 (preview)
C          30.42211011095159    15.55414245236338     5.42213450824158
C          31.05399085483283    14.32612573323395     5.42589801814042
C          30.82763298545549    13.44851448127017     6.47481113668869
C          29.95616587594031    13.79564762845802     7.50002145836420
C          29.32858707698916    15.02534508761290     7.48359069015633
C          29.55634660306248    15.92979694402317     6.44692342996979
O          31.38303366724424    12.17341023520443     6.54007071262650
C          28.90132702713722    17.24461434959071     6.42626025364109
C          29.56543200363201    18.36525169491957     5.93220594208115
C          28.96518707232224    19.61025191141749     5.90626687017598
C          27.67325595609937    19.75134186264107     6.38834272706926
C          26.98702391472108    18.63989972361898     6.87263652868342
C          27.59601639385015    17.40376567794122     6.89163540505526
O          26.93662175438253    20.91894452850742     6.39032296114496
C          32.67356252881739    11.99647485898062     6.34485275769232
N          33.45885859780715    13.03168105994633     6.09147146034791
C          27.43007004248711    22.13120008549894     6.26383016547406
N          28.72730893639766    22.38074885575694     6.30700479076835
H          30.59452469419693    16.22468389451946     4.59483362933324
H          31.71095434613101    14.05731147763583     4.61654171285471
H          29.78769732175931    13.09611734671446     8.30432669985391
H          28.67572216806530    15.29643102051486     8.29953223982590
H          30.57949454871256    18.27104228442615     5.57486112091154
H          29.49592268688840    20.46157236554543     5.51818780879988
H          25.97502676223930    18.76587054161520     7.22488446212682
H          27.04575544079141    16.54736914005386     7.25085796130942
C          31.02066113782965    19.78997704086757     2.16822282838709
C          30.38819706586280    21.01684448616643     2.20036786880868
C          30.65347900372126    21.89589835682314     3.23888133278705
C          31.52909146647327    21.53941435193662     4.25417223455032
C          32.15059681222735    20.30629004894120     4.21500963356964
C          31.91976899422217    19.41597464272369     3.16620063143704
O          30.13458494878051    23.18560880196808     3.24331773163366
C          32.62517693182777    18.12778055015170     3.09875944228750
C          32.02239217157058    17.00019520596731     2.54487153309622
C          32.68957367241004    15.79154159487688     2.45618514938191
C          33.98318528985057    15.68896034441895     2.94573036189290
C          34.60480150595559    16.80494532386117     3.49732318314077
C          33.93344655041279    18.00691331012274     3.56887642366670
O          34.77134428794513    14.55123550805646     2.87980508549408
C          28.82661999948457    23.35417113660515     3.19174068851204
N          28.02591092759532    22.31453358336964     3.33820459483077
C          34.28889821562115    13.33569113342517     3.03291175502574
N          32.98981995439309    13.11628646788915     3.11334006704431
H          30.83650474095646    19.12787449692059     1.33621642597130
H          29.70249519880010    21.30250097826602     1.41795380576287
H          31.70645296005018    22.22879065300589     5.06438967419965
H          32.81207171256204    20.02718542475385     5.02098896818850
H          31.00692056352106    17.05996629843145     2.18233470138046
H          32.20142149310200    14.93659708332535     2.02062349310384
H          35.61382201639186    16.71091101519462     3.86642310393306
H          34.43925341849073    18.86893378720671     3.97583379884107
C          49.05995825048544     4.26445868104717     5.46961790922223
C          49.77765960187631     3.08814349105293     5.57442510932015
C          50.99058732118544     3.06957839117683     6.24103841917333
C          51.48033900624588     4.23616286390032     6.80293469483889
C          50.76215894980044     5.41192249118420     6.70172639137257
C          49.54136698018151     5.44476674956095     6.03217809840778
C          48.75345471073424     6.68254008351043     5.94375390966960
C          48.03315678175594     6.99367899167686     4.79233684065729
C          47.22979674272437     8.11494490963649     4.73463303525018
C          47.14194204824247     8.94623296694898     5.84049151694606
C          47.87631417049445     8.67783014198341     6.98433607797982
C          48.67512142423085     7.55220454801634     7.02921545831070
O          46.22419309971367     9.99429943092157     5.79940856399327
C          46.64627884021246    11.22163937872025     6.02038485727016
N          47.93525515587299    11.45787369319481     6.17160792044765
H          48.10312898211866     4.26600884957337     4.96847446134641
H          49.38648619144780     2.18011020560695     5.13850789247602
H          52.42802780460573     4.22889246727138     7.32102327617287
H          51.15890776808772     6.31954231932183     7.13078221936043
H          48.10667442001969     6.35323035680224     3.92682407621429
H          46.67024321764754     8.35867512610823     3.84653483862042
H          47.80564938144188     9.33702732230299     7.83551357875151
H          49.21709590679353     7.32552514199185     7.93509149969002
C          50.57500920714915     8.34669450442368     2.70334595648739
C          49.95410929362761     9.57701114859766     2.60516958790048
C          49.99008208555713    10.44348917774640     3.68512916433240
C          50.61436850053646    10.07346534428168     4.86674130706970
C          51.23326274469604     8.84288496739757     4.95089945145413
C          51.23802190197085     7.96623261689811     3.86771670592430
O          49.48447620611267    11.73870568198496     3.60596927664837
C          51.95681295593911     6.68585772308576     3.93627357858979
C          51.43949267529015     5.53646824687954     3.34402958545966
C          52.13400933961960     4.34330592056361     3.39463342369223
C          53.36041478725194     4.27700241385558     4.03350636228461
C          53.88649263949206     5.41281576357462     4.62435181315771
C          53.19105122701844     6.60612908218290     4.57759579208881
C          48.20804981801856    11.91290948128069     3.35696421037558
N          47.42035957790896    10.87352334904506     3.13384788660132
H          50.57503133151976     7.68538652571004     1.84984364321808
H          49.45626663110843     9.87187285901335     1.69497622344674
H          50.59789040302299    10.75735236692630     5.69940803904090
H          51.71232134310613     8.55358376138913     5.87376566875811
H          50.47668730039124     5.57560763781181     2.85736666670885
H          51.71663978143716     3.45940868829713     2.93515896056833
H          54.84565856809279     5.36943930638666     5.12004140214566
H          53.61797412010992     7.49377444293049     5.02098317070751
C          30.24896171017152    38.81592400553596     5.72779144911197
C          30.92418278888582    37.61246636893522     5.66841831256086
C          30.62593842747264    36.62322434660617     6.59208158142332
C          29.65246441645707    36.83224543994561     7.55967506446506
C          28.97863967667343    38.03629581991260     7.60312949614546
C          29.26611145200044    39.04751893646105     6.68823853879957
O          31.20544239128043    35.36275011676646     6.54536259234450
C          28.53892174188227    40.32485081391516     6.72629772475456
C          29.19727281992662    41.52624231852306     6.47431338377759
C          28.51203090520646    42.72602582825953     6.50815074732874
C          27.15702887166481    42.74780318829929     6.79200315227752
C          26.49066775399798    41.55945116894267     7.04093165871158
C          27.17456282881889    40.35867559560450     7.00916473380575
C          32.50510112280839    35.23357434111731     6.37918789562162
N          33.30897502833741    36.27820976133804     6.48302452174152
H          30.47272089972618    39.58044816807866     4.99977586477490
H          31.66733569885232    37.43058568182055     4.90883169246197
H          29.43439635053945    36.04716315554776     8.26714901645720
H          28.23560233743834    38.20150312675143     8.36897630601965
H          30.25688328325490    41.52228216523499     6.26735511460397
H          29.04095733759472    43.64662771058792     6.31023582649928
H          25.43218734607124    41.56885961339653     7.25773953483637
H          26.64318911213909    39.43444562907171     7.18308834051058
C          31.55498336176327    42.77201804994878     3.03411415750528
C          30.93169285202128    43.99683781898569     3.18237943599860
C          30.99179360588457    44.66808240772487     4.39188946686420
C          31.67615245819019    44.10282479913545     5.45506742210886
C          32.29738987661809    42.87637902089405     5.30955083911272
C          32.24972340009935    42.19374586201210     4.09470765519408
C          32.92772223797979    40.89872134794256     3.93556986979064
C          32.37457530485918    39.88766677667702     3.15300670771275
C          33.01382041977795    38.67202250305571     2.99115658318562
C          34.23004546454312    38.45476588474398     3.62031807553650
C          34.80232812212433    39.45264441451723     4.40040059333969
C          34.15269127846252    40.65844612919972     4.55703564548272
O          35.00055376715235    37.31677703851747     3.45074622255442
C          34.48963277159294    36.10929316443563     3.33818225056746
N          33.19558915918762    35.88466389705377     3.46911761228821
H          31.52452385560591    42.26926960814772     2.07874085735871
H          30.40131090323998    44.43323573668409     2.34858957424736
H          31.72467296101851    44.61822026788942     6.40364618060245
H          32.81148396279767    42.43386126093891     6.15042099517842
H          31.42297785467922    40.04459029031609     2.66661444670407
H          32.57042651556112    37.90171887223618     2.38144449763461
H          35.75483735178119    39.26544602044490     4.86998915522797
H          34.61526835993341    41.43424020102969     5.14795121481546
C          49.39636832706723    26.73783559097144     4.72007707317210
C          50.10690426753535    25.55515343170012     4.66956227653496
C          50.91632492259264    25.19413510531833     5.73738379656848
C          51.05832466408150    26.04152496379195     6.82569078295932
C          50.34567219952400    27.22336965512883     6.86318187250763
C          49.47969972998220    27.57627533248312     5.83015238285599
O          51.47677162409425    23.92402146303758     5.71508179365078
C          48.63483173420916    28.77458207344186     5.93740444022656
C          48.34665084099569    29.56323929979778     4.82620895730183
C          47.53568038763354    30.67747252280611     4.93028027559937
C          46.98485067464632    31.00412989800385     6.15911122628977
C          47.25051914699401    30.22918623689879     7.27831732731479
C          48.07429096442852    29.12679622238159     7.16490756532284
O          46.07204162576658    32.05429313249064     6.29398649614270
C          52.75011781594799    23.76556704897463     6.01253293780438
N          53.53084803011691    24.81988616664679     6.16963578906725
C          46.50451062265345    33.29339541965552     6.19397429209592
N          47.79511042377757    33.52809746632413     6.02185616460985
H          48.73919854921063    26.99675874402332     3.90411162980414
H          50.04354584695685    24.89795490037805     3.81767168495405
H          51.70910690836229    25.76830215124735     7.64071764929860
H          50.46216587752789    27.88120040469604     7.71126673032822
H          48.77898783452114    29.31649090316922     3.86900096429722
H          47.33689541195113    31.28888162437690     4.06609819397224
H          46.80382564694958    30.49297406063275     8.22478808498616
H          48.26298126676569    28.51587393374453     8.03466057454494
C          51.49150794261676    31.13512672595224     1.93627337916989
C          50.87148659180968    32.36163115075125     1.79595205906303
C          50.26185471735488    32.94817880984584     2.89433579781379
C          50.27457096406183    32.31724063759886     4.12902525637995
C          50.91522711069441    31.10041204915692     4.26131991313640
C          51.52678587376166    30.48703129858107     3.17024407633892
O          49.72847938694737    34.22946182613410     2.75444326089825
C          52.22683165639025    29.20110385114466     3.30883632554786
C          52.15840009388403    28.24258307826798     2.30037075906878
C          52.89070779443782    27.07370021331156     2.37499642950594
C          53.70521827517307    26.85171306316255     3.47412582904641
C          53.75227229733323    27.77032701115211     4.51299854420107
C          53.01384523692275    28.93363269708247     4.42762909917387
O          54.57227558079057    25.76785682002184     3.54956054876293
C          48.44157836681823    34.40160935516409     2.97594534741575
N          47.63921696430825    33.34994102536793     3.02242849771947
C          54.11746300810504    24.54983317746095     3.36360063527454
N          52.83622480115642    24.34143220527478     3.11883498803187
H          51.97917840126784    30.68722650765977     1.08355084324094
H          50.86033429641105    32.87214341051798     0.84527264695503
H          49.78635867467922    32.77813929652208     4.97259029055285
H          50.92342914220110    30.61020209121028     5.22252436777927
H          51.52283489733908    28.41288528168111     1.44432741631368
H          52.84131294288337    26.34484660044351     1.58219853634067
H          54.37459154910140    27.55767022007621     5.36717166284459
H          53.07546229572057    29.66181615480008     5.22177745046800
C          32.44203573457419     6.82036152918835     5.65919121954653
C          33.13701027679264     8.01336776492395     5.62110544217243
C          34.13573675851401     8.24426244051940     6.55384032410258
C          34.44317306243926     7.28547024952698     7.50982945500253
C          33.74708457879271     6.09356350162452     7.53184914853010
C          32.73562937679860     5.84166559525091     6.60681026140035
O          34.93104542114015     9.38139008361248     6.52617025136434
C          32.00500851689257     4.56578804747427     6.61975036972507
C          30.63736179553000     4.52623020750872     6.35858548326264
C          29.95255310805938     3.32572917482301     6.36719614787785
C          30.62119480724467     2.14311601086404     6.63453290853539
C          31.98167001329369     2.16925144577784     6.89267640950546
C          32.66796428905769     3.36907080465609     6.88617659288398
C          34.38960620011490    10.57055718056080     6.36404470913701
N          33.08216734577910    10.74002414113467     6.46572647793793
H          31.67405522235785     6.63603440718761     4.92385025346325
H          32.92181990569749     8.75665338451376     4.87038291265932
H          35.22635854153441     7.48529977891768     8.22475479481944
H          33.97713880413207     5.35819145568107     8.28831263495427
H          30.10313222527758     5.44412011280406     6.16445957672357
H          28.89210482239440     3.31674204230615     6.16256086929889
H          32.51050627155236     1.24937682625180     7.09677410982864
H          33.73286784664160     3.37850455523979     7.06702551776509
C          28.31749464414904     5.99071708602410     3.00572038756615
C          27.56780095020078     4.83881088036305     3.15339533999055
C          26.97501250813855     4.54364939995895     4.36939899397506
C          27.14152536947651     5.40683783691664     5.43967824219826
C          27.89293895855673     6.55816768934156     5.29444342536839
C          28.48923684477554     6.86975508338682     4.07319412598372
C          29.27172364625002     8.10461125400099     3.91531622855054
C          30.41606606667274     8.13580699982145     3.12156618280324
C          31.14922467833522     9.29761681265125     2.96232033793878
C          30.73605718560847    10.45498325715938     3.60414010594953
C          29.59304272179722    10.44713692013094     4.39474039818852
C          28.87443260238456     9.28093205904329     4.54990035148975
O          31.33629044595005    11.69170629993122     3.43682776363674
C          32.63757107824488    11.85264740001528     3.32545367777653
N          33.47872913580179    10.84357589472424     3.45409688490888
H          28.75412931193635     6.22496729786009     2.04606822976004
H          27.44017547770482     4.17053392034741     2.31430631151604
H          26.68646537309229     5.18122790300472     6.39348249558270
H          28.03433805927595     7.21541862422316     6.14015231905511
H          30.74926837289850     7.23673290980057     2.62411020082268
H          32.03252959530427     9.30294023875647     2.34460149180106
H          29.28387620214244    11.36238198095204     4.87379796320379
H          27.97723910367418     9.28944819930651     5.14991052600087
C          33.29486167414522    29.44198759102837     4.71577909383624
C          33.96766505145836    30.64660624176881     4.66551712940996
C          33.87483047728286    31.53039761822889     5.73144101548179
C          33.06581242667692    31.23345856701589     6.81774148193891
C          32.39491907480253    30.02737706644882     6.85499713339827
C          32.52242118161720    29.09886583078415     5.82387912811437
O          34.69747419346606    32.64876037454048     5.70876763038997
C          31.90354790633213    27.76960889926488     5.93202985126216
C          31.36540864717134    27.12440440149433     4.82119315623891
C          30.80483131803029    25.86545044262598     4.92639950815531
C          30.79542559261757    25.22665811560569     6.15607190812000
C          31.33163444628670    25.84614453422648     7.27524155760416
C          31.87542040068701    27.11023861445198     7.16068074580895
O          30.34464275629179    23.91026858070403     6.29153386980332
C          34.20182332448871    33.83232649829787     6.00701770703218
N          32.89912861039997    33.98425324338773     6.16756249519736
C          29.05575869119158    23.66158497806972     6.19516961552878
N          28.20373494145062    24.65955055907324     6.02663805109197
H          33.39969746879466    28.74179178847665     3.90123444118313
H          34.57224677018816    30.91713263126962     3.81524616903596
H          32.97647595993269    31.93493602929667     7.63157440846123
H          31.76383933148570    29.80263832431000     7.70163585125578
H          31.36503763682307    27.62062340860977     3.86316359898958
H          30.37565599138080    25.38638507150391     4.06239130610123
H          31.32476297943657    25.32905092763484     8.22261737463181
H          32.30887084780819    27.58021030175818     8.03048947434436
C          28.44532276629175    29.04062454566774     1.94490050859655
C          27.68850635140759    27.89346088252750     1.80415836003553
C          27.47308222207967    27.07869548969711     2.90486721886583
C          28.00526737275313    27.40840557796868     4.14209448960983
C          28.74349722862299    28.56849223462427     4.27465747648837
C          28.98135755673127    29.39826902979653     3.18127603248151
O          26.62773866421492    25.97762190695342     2.76507415919398
C          29.75032707981642    30.64412940974543     3.31974897297780
C          30.62515007046851    31.05443037947244     2.31645321734464
C          31.27557124347198    32.27093488302440     2.38915586613810
C          31.05412100316036    33.09477399154258     3.48141331832135
C          30.22524142695570    32.68515960961872     4.51623312350249
C          29.58285588263474    31.46617712856680     4.43279101685418
O          31.55962818618181    34.38704743969652     3.55426129463580
C          27.12390779443898    24.77719057314280     2.98303469918318
N          28.43629714728873    24.61074234972851     3.02733049154405
C          32.84043089339735    34.60618847012321     3.36418970246028
N          33.66525830253283    33.60497132185694     3.11504021053212
H          28.59932535199319    29.68210687764356     1.09028799230542
H          27.25819271568649    27.62607243666443     0.85133063382658
H          27.84109820304020    26.75946123329764     4.98717799738300
H          29.15824618961882    28.82298421076843     5.23771645396992
H          30.79986019678880    30.41316039936027     1.46556522442413
H          31.93925964662342    32.58512436752268     1.59994821746203
H          30.09385121338253    33.33641056157041     5.36522798622782
H          28.91355854989851    31.16259869269176     5.22310495221121
C          52.47495862383485    18.61058030645756     5.44941468177244
C          53.22410795478525    19.77088153777681     5.44967283557751
C          54.09436048466620    20.01783247149891     6.50013984426858
C          54.22455388487518    19.09490844935392     7.53076965981581
C          53.47172410066949    17.93762914745658     7.51797748207368
C          52.57789047034635    17.67817283585303     6.47955020997822
O          54.92320050056631    21.13507662112310     6.56212370736293
C          51.76543849380324    16.45424255154376     6.46334787026189
C          50.46503805308533    16.46763440675528     5.96375082023742
C          49.68580052409835    15.32611058877243     5.94151520214776
C          50.20579012031838    14.13908157142843     6.43293194816709
C          51.50904964247555    14.10172929105585     6.92361720816112
C          52.27642185963569    15.24645347570708     6.93878416549030
O          49.56098487095229    12.91818227337755     6.43669534615092
C          54.43320625228940    22.34118799692940     6.36217772134555
N          53.14445868598230    22.50374187342652     6.10703218873804
C          48.26537036500532    12.73962116163029     6.30174377212246
N          47.39957091714930    13.73792163369742     6.34158068971209
H          51.81081718946769    18.42125719358565     4.62055445107231
H          53.13195458625937    20.47013911374464     4.63629737337584
H          54.91215797652658    19.30204628601300     8.33633179183158
H          53.55953330815913    17.24105823572785     8.33807154821198
H          50.04243313397961    17.39106374884893     5.59845514738165
H          48.68523341828323    15.35847068069846     5.54811323581906
H          51.90334996124172    13.16407301304048     7.28334602595543
H          53.29157356707426    15.19889396340775     7.30271687072546
C          48.47687854944047    17.03793909265121     2.17944894137141
C          47.72486150508762    15.88056804261787     2.21458983923597
C          46.86161287635085    15.65830429518888     3.27625431216446
C          46.77020131561633    16.57705743092281     4.31113537693564
C          47.52743703097558    17.73158652580928     4.26573679638387
C          48.38363181041127    17.98850375810689     3.19525133179130
O          45.99914199464533    14.56649899461887     3.28444584589316
C          49.15066417739268    19.24078849776103     3.12530360465979
C          50.42088920974427    19.28034086318891     2.55418280343410
C          51.13679546929893    20.46055907838196     2.46267940970047
C          50.58848513965555    21.63109034001592     2.96534071488752
C          49.31968185740899    21.61299188225689     3.53592575214812
C          48.61181491484248    20.43235221592455     3.61153325109443
O          51.18305313635472    22.88085587356542     2.89385367867608
C          46.50868798354622    13.35008001454767     3.22715955416624
N          47.80979781250266    13.17988991113251     3.37385441811326
C          52.47771969203690    23.06543662037524     3.04640767933310
N          53.31224075457910    22.04616483021542     3.13058255812851
H          49.12034240732736    17.21955297110790     1.33226496718281
H          47.79201309248560    15.15619298668519     1.41769931596888
H          46.11194315200680    16.37558147306816     5.14145730979871
H          47.46292970409850    18.43260050564199     5.08377687974139
H          50.86786371234409    18.37094396887629     2.18070457738535
H          52.11560744157369    20.46511990270300     2.01438010761501
H          48.90548868155557    22.53325143437299     3.91639774060857
H          47.61871781924711    20.43870331669962     4.03371279579114
C          52.95848039027291    40.36831638605390     5.44749264564935
C          53.62114321982746    41.57641410928088     5.55292257975012
C          53.03221766465229    42.63787489599091     6.21803321437715
C          51.77572688212324    42.48206275779734     6.77785174475621
C          51.11371507132240    41.27386458273674     6.67587182755271
C          51.69413189793084    40.19845134929285     6.00778656216844
C          51.01294619307827    38.89897406574637     5.91832520334275
C          51.10542747943205    38.11841166603261     4.76786638584503
C          50.53266764174884    36.86364831963384     4.70912035329630
C          49.85093194086283    36.37489032636606     5.81275336749211
C          49.71473356513864    37.14632125906662     6.95563485720276
C          50.29389259727652    38.39913252144714     7.00174471481007
O          49.39717551959476    35.05789092613747     5.77110488086159
C          48.12122500367301    34.81557115342779     5.98827070942622
N          47.27563958165356    35.81796333355395     6.13232879470473
H          53.43442586640109    39.53749604970321     4.94761929543442
H          54.60411099819825    41.68902652902870     5.11859878822945
H          51.30934597004329    43.30779146238050     7.29480249676780
H          50.12830970357165    41.16629381998696     7.10322931985085
H          51.62722227266514    38.50017737005011     3.90376388883113
H          50.60295102759691    36.25634556943972     3.82176187697242
H          49.17502064326494    36.75773026310630     7.80520036737948
H          50.21793297976586    38.98260556884381     7.90701396298969
C          48.68330044789435    39.65948283874311     2.67477763465006
C          47.92683172271569    38.50773062356758     2.57396671744068
C          47.15147228953687    38.10864357726417     3.65003393155678
C          47.15503654730546    38.83572426526913     4.83084289588270
C          47.91292788286244    39.98568281608983     4.91769469028276
C          48.67609092594569    40.42572068136381     3.83793297486778
O          46.27945503231427    37.02619146869721     3.56756918549796
C          49.42629672725829    41.68782777293237     3.90861891091934
C          50.68256838849402    41.81353826952114     3.32083943858319
C          51.36912941315249    43.01120182112485     3.37335747282931
C          50.81182324685123    44.10708365267120     4.00982484170490
C          49.56299973085639    43.99575705687511     4.59630103450435
C          48.87666666679584    42.79728750582377     4.54743517122940
C          46.76224058920467    35.83138889212388     3.32048132534696
N          48.05587561159922    35.66269862737754     3.10021369341820
H          49.26112901752330    39.98795365022609     1.82389141603761
H          47.92459039542671    37.92797263317298     1.66451770372275
H          46.56574468855511    38.48152602231407     5.66065412491635
H          47.91990812775102    40.54631290799568     5.83993371486460
H          51.13151481296529    40.95971601383377     2.83629277139199
H          49.11974304890447    44.84855876934380     5.09012168213640
H          47.89280582185771    42.72419302858306     4.98724816745839
C          19.69175867667828    25.66807980046563     5.46102636540890
C          18.31440079065094    25.62802786559848     5.56609246579547
C          17.69666982804643    24.58053069886732     6.22720594456987
C          18.46668512761223    23.57364112812465     6.78367759352951
C          19.84380477560534    23.61442996712694     6.68228130769816
C          20.47784670994555    24.66148666531321     6.01792446928954
C          21.94341273269156    24.73122501226918     5.92862309488634
C          22.57008895517177    25.20749203353878     4.77892574806183
C          23.94237524498623    25.34672306926428     4.72001389831876
C          24.70871588999676    25.00320017745856     5.82288489517910
C          24.11191177832568    24.49457283751622     6.96523034338392
C          22.73814789210028    24.36149668038241     7.01137838145012
O          26.07493130068597    25.27530653310053     5.78091435920789
C          26.92676449492940    24.29418452148591     5.99491111468326
N          26.48569933301181    23.05915094224698     6.13814917011212
H          20.16772896812733    26.50065838248232     4.96410270331894
H          17.71996967421610    26.42044836552797     5.13451837277658
H          17.99030997022179    22.75167364190724     7.29750988710006
H          20.43517607978950    22.81759575051723     7.10721401393292
H          21.97676721961338    25.46660400093982     3.91548651803918
H          24.43099582498717    25.71527593539823     3.83309333116600
H          24.72006291960993    24.22366548449497     7.81423825971933
H          22.27306642455772    23.99964772108630     7.91608623010728
C          22.45646500231246    22.34695657756541     2.67583641712912
C          23.83254434202914    22.27247135929289     2.57722327341958
C          24.56544032443254    21.79894219005519     3.65288909753851
C          23.93299589901840    21.43199409357939     4.83116823260271
C          22.55770212604059    21.50828076483382     4.91569330077887
C          21.79562352455357    21.95091398639824     3.83623712306443
O          25.93951344108266    21.58928400564444     3.57209557293493