603
 energy: -1060.783698136494 gnorm: 0.000586457202 xtb: 6.3.0 (preview)
C          30.41953940231285    15.55558485947498     5.36580112521646
C          31.05440738957762    14.32920246681342     5.37701108320563
C          30.82650655665936    13.45566455920728     6.42894958297367
C          29.94876428623096    13.80418909467560     7.44841977133891
C          29.31801084067097    15.03207800014994     7.42440613673535
C          29.54913809444290    15.93336904955107     6.38576522055413
O          31.38696931632212    12.18365124864957     6.50460007243448
C          28.89484495026967    17.24831126449493     6.35917690796627
C          29.56339699912789    18.36735836766098     5.86752793093317
C          28.96583096387163    19.61350865000151     5.83862917386146
C          27.67211557533721    19.75717730084737     6.31517004354935
C          26.98108269035982    18.64709268414795     6.79571942070873
C          27.58752222738530    17.40974613873922     6.81784056724453
O          26.93867618050103    20.92673555795046     6.31624327731742
C          32.67787322833738    12.00870700770886     6.30978464371444
N          33.46036701822482    13.04227145085170     6.04169567968744
C          27.43559794839973    22.13783218926451     6.19355362938801
N          28.73357387774259    22.38387437340126     6.23567011894856
H          30.59382032683001    16.22338602978258     4.53672153990389
H          31.71514329751281    14.05896525793993     4.57129143064996
H          29.77861829372026    13.10716283805364     8.25453905807152
H          28.66049431401134    15.30463394286448     8.23610364336023
H          30.57897219901510    18.27094833439105     5.51511418784557
H          29.50011382670207    20.46380724523548     5.45322831227103
H          25.96769134737288    18.77517228555701     7.14314983652521
H          27.03404564250901    16.55439014584475     7.17460982604196
C          31.00868471888884    19.78683844380587     2.10438158391168
C          30.37801297659667    21.01479259152777     2.13569061701821
C          30.65104052920826    21.89776124330218     3.16892841710360
C          31.53248907691923    21.54355827383556     4.18004739019965
C          32.15223669451107    20.30952969043655     4.14169288611389
C          31.91404994240151    19.41547429596256     3.09769108447723
O          30.13535837258190    23.18891104309992     3.17259143642729
C          32.61873550337867    18.12666392699903     3.03101278585977
C          32.01203673530995    16.99588880984635     2.48803686726985
C          32.67816612707641    15.78623312544284     2.40251873373138
C          33.97528668454585    15.68622220769190     2.88329978589903
C          34.60137159908301    16.80586664605659     3.42253571369575
C          33.93062688433793    18.00830361252985     3.49176872388548
O          34.76302562954478    14.54809823194619     2.82057265486375
C          28.82796885669357    23.36250030655983     3.12395538396269
N          28.02350208263453    22.32565580229279     3.26936796599956
C          34.28323649782295    13.33270457293864     2.98261693982920
N          32.98479672822405    13.11017890264654     3.06508257836292
H          30.81809707114722    19.12160546487535     1.27630146033626
H          29.68771454675175    21.29801973287882     1.35646417666253
H          31.71588851818463    22.23561048994510     4.98661350584810
H          32.81844462866884    20.03276148459810     4.94458196421445
H          30.99419240602844    17.05390130405981     2.13182432012253
H          32.18653876570643    14.92855178173692     1.97631178932517
H          35.61332306595634    16.71406229218622     3.78408814509640
H          34.43961301984260    18.87275762883127     3.88949847864353
C          49.07959146566710     4.27099595131345     5.49126052283841
C          49.80292188756937     3.09900801660562     5.60517136270877
C          51.01875231195488     3.09264009074496     6.26673117477720
C          51.50555698058466     4.26693905535403     6.81482820768826
C          50.78158624106177     5.43834484361827     6.70484689014411
C          49.55808708520440     5.45899535547079     6.03982567817883
C          48.76501794814266     6.69270805413408     5.94166758931008
C          48.04113590401833     6.99051276008446     4.78900551218681
C          47.23485738179054     8.10920195125902     4.72214638263948
C          47.14728518780342     8.95073530436330     5.82020886941383
C          47.88401773535583     8.69479084958956     6.96542281730381
C          48.68622756728877     7.57207916050234     7.01922745610536
O          46.22798184263006     9.99692947413729     5.77052853705727
C          46.64828540259330    11.22602501433022     5.98663148332339
N          47.93692341350629    11.46438795414031     6.13665241555379
H          48.12081958091488     4.26343309807527     4.99388106371100
H          49.41409183043137     2.18486524105705     5.18011062647146
H          52.45538930126999     4.26919192573174     7.32903590303545
H          51.17568266680787     6.35196953785394     7.12342424621848
H          48.11448169089549     6.34177970549862     3.92967457682304
H          46.67294870055203     8.34333628217609     3.83291595444814
H          47.81282696489463     9.36162352225302     7.81057126402209
H          49.23071670708907     7.35541257530317     7.92603616796780
C          50.57138690364915     8.32920842715034     2.68410068060165
C          49.94986717431760     9.55894930994540     2.58250966362459
C          49.99308016092079    10.43202752646973     3.65687784449645
C          50.62604857637606    10.06941221727936     4.83623271932999
C          51.24595194567838     8.83955909134399     4.92357831508738
C          51.24263329866860     7.95592089271049     3.84603847825032
O          49.48644571051175    11.72644651864488     3.57473942086226
C          51.96084880110998     6.67536133584626     3.91749902731158
C          51.43748295975801     5.52265910451279     3.33711629802262
C          52.13079055591571     4.32893616054296     3.39039983542692
C          53.36215889439710     4.26536519524057     4.01991624836681
C          53.89431553674738     5.40447824763819     4.59882494145606
C          53.20000494264120     6.59834722561077     4.54957208554031
C          48.21009719911272    11.89990411107922     3.32506960834398
N          47.42287021692807    10.86039188978344     3.10137293006870
H          50.56523997733482     7.66255139917224     1.83479607209336
H          49.44565859768869     9.84781772051107     1.67395171348329
H          50.61521604953683    10.75870590425753     5.66457098487107
H          51.73222586022559     8.55625460959573     5.84453236412510
H          50.47097567158605     5.55975251702276     2.85769386184983
H          51.70859620147098     3.44248227018245     2.94034708722379
H          54.85738540904306     5.36319960468847     5.08706846506529
H          53.63151755218068     7.48836628935112     4.98365487831611
C          30.24494976308814    38.83161804111376     5.88959630592701
C          30.91695868372737    37.62979216207688     5.78042501992112
C          30.62793474682637    36.60958041823085     6.67277445528792
C          29.66572208560330    36.78620337734188     7.65796877164563
C          28.99485583466052    37.98906583258295     7.75124983628162
C          29.27416252466880    39.03135908390734     6.86928865877805
O          31.20672872059316    35.35134436668875     6.57888955227881
C          28.55159665231850    40.30853339706895     6.96186417457778
C          29.21092074309178    41.51623713959799     6.74496417700694
C          28.53021938397797    42.71601581979459     6.83048840483846
C          27.17894189266199    42.73164079162483     7.13187636550083
C          26.51168801696373    41.53712203692188     7.34641757255987
C          27.19104014784925    40.33624058842236     7.26302218624481
C          32.50488874172660    35.22772243063210     6.39779439610876
N          33.30818819731034    36.27153709595715     6.51304660363961
H          30.46184087819213    39.62092314401278     5.18634142040167
H          31.65147231559336    37.47382942033694     5.00689683480982
H          29.45444981685192    35.97734302933824     8.34027017938129
H          28.26116591337854    38.12858592199668     8.53107665903319
H          30.26783381672358    41.51646349582456     6.52461107596560
H          29.05959362722359    43.64163497927102     6.65920653713557
H          25.45606955998586    41.54190854976731     7.57682430408054
H          26.65871337212102    39.40798540668190     7.41054788161598
C          31.49071519964579    42.79669379248430     3.25387914302654
C          30.86354820243860    44.01337068098463     3.44622387196296
C          30.95420391235551    44.65948894689171     4.66743456529687
C          31.67293529781371    44.07701525277850     5.69806110194893
C          32.29750422977869    42.85827489938396     5.50873623823622
C          32.21965801995348    42.20113776185649     4.28146004221283
C          32.90148162783746    40.91463425548196     4.07610240599070
C          32.33436465024310    39.91666417474757     3.28682906983163
C          32.97520525865841    38.70784430032109     3.08465421033831
C          34.20740477330362    38.48408286998284     3.67954648875013
C          34.79485685789677    39.47014758320605     4.46353878449045
C          34.14365401742106    40.66913994313212     4.66038202171004
O          34.97763868675641    37.35190318318692     3.47345788949944
C          34.46861367855756    36.14470128044162     3.34883438544922
N          33.17659980931717    35.91486876071578     3.48999265266339
H          31.43607743301969    42.31425154196689     2.28916744701645
H          30.30617074339051    44.46328379923845     2.63761624255094
H          31.74590356290041    44.57273957312555     6.65551626241165
H          32.83829382292606    42.40167822025781     6.32495770704850
H          31.36983034931337    40.07754687844551     2.82805771950454
H          32.52011780126728    37.94748157835107     2.47116486411206
H          35.75997991365402    39.27905881622057     4.90502482798975
H          34.61765561198198    41.43559364234156     5.25442596107109
C          49.37141089483136    26.73938986574067     4.66511428504980
C          50.08665507770178    25.55910110502107     4.62204747490560
C          50.88490018285633    25.20031470674886     5.69892735726494
C          51.01141807747354    26.04737988003003     6.78938502349916
C          50.29483000883548    27.22685547171471     6.81913268897430
C          49.43946454125400    27.57747403383220     5.77646072151863
O          51.45087189539647    23.93275545545156     5.68335996475274
C          48.59218342461170    28.77465924667783     5.87654586722316
C          48.31412875611966    29.56523398280055     4.76417439797588
C          47.50605856692722    30.68206713961261     4.86386734099133
C          46.94819811278774    31.00935347217765     6.08934063090308
C          47.20124219732975    30.23076852632444     7.20895385382532
C          48.02186263009082    29.12572414673587     7.09993842574450
O          46.04128487350716    32.06489076537999     6.22111650808805
C          52.72079940232868    23.78101354392722     5.99852148559184
N          53.49535253335855    24.83902538347022     6.16043776835532
C          46.48196090548210    33.30125500739994     6.12343247014488
N          47.77412985220528    33.52794163191462     5.95244159939609
H          48.72288758539734    26.99670459551233     3.84173375700518
H          50.03560873448554    24.90190580519267     3.76927112635008
H          51.65341571161159    25.77572893565703     7.61185791611619
H          50.39985180745118    27.88480581726781     7.66858063061706
H          48.75272062476838    29.31843708467531     3.80982614000740
H          47.31573135204483    31.29543150157393     3.99911698944996
H          46.74801964398359    30.49452405593855     8.15234375975587
H          48.20105512585958    28.51232146141737     7.96994367123762
C          51.48547497020456    31.12012715173521     1.88506529877559
C          50.86610446542009    32.34629374596305     1.73832201891942
C          50.24970444017583    32.93533190049262     2.83163248700552
C          50.25362633656216    32.30612791217217     4.06731016797108
C          50.89354548128580    31.08968282070891     4.20609039137233
C          51.51352012064905    30.47473570062649     3.12060765668589
O          49.72085283474863    34.21779402541861     2.68677289529298
C          52.21599624414465    29.19112537111745     3.26842563611702
C          52.15877807073523    28.22830568163002     2.26339562002332
C          52.89329043455145    27.06144577386046     2.34918186623852
C          53.69902582806074    26.84592466518318     3.45606381102132
C          53.73566940905914    27.76964842557378     4.49087700122166
C          52.99501507113351    28.93058460507854     4.39445241368675
O          54.56751374969794    25.76414825511706     3.54487647666956
C          48.43496303573232    34.39786951916276     2.90809616068918
N          47.62521736827561    33.35182957679230     2.95264736881410
C          54.11795997498374    24.54384330188260     3.36029504654400
N          52.84020449246852    24.33091314449993     3.10149516673645
H          51.97880817471478    30.67075256548885     1.03638613892529
H          50.86137798837113    32.85496020898255     0.78661222870588
H          49.76009860902207    32.76846897426690     4.90695050828670
H          50.89519747037589    30.60128704902416     5.16824920120703
H          51.53017098456859    28.39342051670118     1.40121426805044
H          52.85214289238995    26.32909329678082     1.55913995799041
H          54.35143506320620    27.56269445275040     5.35111885381094
H          53.04863564009484    29.66237185603865     5.18585653197205
C          32.42085696260176     6.83018436413220     5.76697414976507
C          33.12506233308334     8.01520741680939     5.67953503257897
C          34.14098956527333     8.26701948628415     6.58795802378916
C          34.45819510838108     7.33519674437514     7.56709021248670
C          33.75278600489048     6.15070710411559     7.63848637652731
C          32.72212236284857     5.87958852526984     6.74047516463017
O          34.94017853667497     9.39985030372293     6.51630298437070
C          31.97757366019840     4.61363799103264     6.81043878616412
C          30.60469058381288     4.58211156631323     6.57694005893849
C          29.90597354713678     3.39141995131852     6.64179453285186
C          30.56544922329072     2.21073161827889     6.93863296042459
C          31.93094817140883     2.22879150821998     7.16934934416367
C          32.63125016045581     3.41885617076467     7.10668345280912
C          34.39709206852881    10.58656542581683     6.34198626629961
N          33.08987712031220    10.75520998313853     6.44716998751791
H          31.63819653826107     6.62978598378319     5.05153067466229
H          32.90178388211537     8.73724189282063     4.91073595425052
H          35.25514042396043     7.55051416736879     8.26204165571970
H          33.99004033679258     5.43743048094734     8.41363412309941
H          30.07787104394703     5.49921157118453     6.36008863404213
H          28.84173921754465     3.38824598288137     6.45802843446245
H          32.45259437399712     1.31018159323020     7.39626152319737
H          33.69949688193119     3.42118358309299     7.26682997180979
C          28.35519494353388     5.94999330276394     3.11098125895058
C          27.61145649111877     4.79834731532056     3.28772553012961
C          27.00175243714216     4.54158622765609     4.50403006973204
C          27.14570966380526     5.44306548644634     5.54553169607340
C          27.89220133906610     6.59361355703366     5.37168338001006
C          28.50501882722458     6.86702893496274     4.14947453366164
C          29.28147982239219     8.10136559754465     3.96064820045258
C          30.43364766182310     8.11531754114168     3.17783149672662
C          31.16276564505682     9.27566317522875     2.99117750517668
C          30.73824205308616    10.44935845167623     3.59486112469063
C          29.58624029099277    10.45899843047928     4.37256660871260
C          28.87122242119732     9.29452762000725     4.55446149808627
O          31.33558874938383    11.68378667773912     3.40307827477675
C          32.63650497667005    11.84752222510161     3.29047351559621
N          33.48085694633082    10.84267049190915     3.42963294874682
H          28.80434968542431     6.15367985157406     2.15015456717175
H          27.50147138594539     4.10015723864859     2.47079741129820
H          26.67645037017545     5.24852091513286     6.49932401921855
H          28.01618388810967     7.28073728292318     6.19608507716851
H          30.77741030999015     7.20365177429456     2.71154215686912
H          32.05223526682197     9.26677119893758     2.38253899970693
H          29.26765540129108    11.38653778275518     4.82094183590874
H          27.96726231442041     9.31696905423963     5.14385502951851
C          33.29633928818828    29.45436907355971     4.65788745320409
C          33.96443216543486    30.66187140629460     4.61230666943905
C          33.87714414357458    31.53653878714248     5.68621796265550
C          33.07789285089427    31.22752706209573     6.77638066552295
C          32.41111336425278    30.01909578357855     6.80858833151586
C          32.53360872517994    29.09935782396283     5.76897095711076
O          34.69580607734164    32.65776131012668     5.66662771320709
C          31.91819421762210    27.76803250788038     5.87191341652702
C          31.37458874449892    27.12851606223942     4.76040966115493
C          30.81360768579826    25.86936724037533     4.86199023414694
C          30.80891958735988    25.22470986151703     6.08863723346168
C          31.35241658217744    25.83757583079436     7.20794431903477
C          31.89691685451454    27.10165029035229     7.09698103266482
O          30.35510867898894    23.90905141394960     6.22079730234748
C          34.20048240641401    33.83611856336221     5.98581706745018
N          32.89901979772415    33.98308820123157     6.16010023785793
C          29.06531403231383    23.66409220840917     6.12667819307112
N          28.21562675066236    24.66485332616232     5.96308649644885
H          33.39729016556903    28.76143324396880     3.83666973998217
H          34.56121684000155    30.94171902229528     3.75953048099350
H          32.99271426200050    31.92152760239528     7.59701158914630
H          31.78714447751868    29.78561143753890     7.65809309078821
H          31.36962108990743    27.62955826027079     3.80490556559401
H          30.37979522020616    25.39489505508709     3.99769348730590
H          31.35003245794485    25.31566739135792     8.15271201203575
H          32.33577284250251    27.56632934840337     7.96691845042386
C          28.44006347940778    29.07135264190172     1.90756039052973
C          27.68715453705580    27.92252116712520     1.75946187469894
C          27.48071164068505    27.09589634923953     2.85311572810847
C          28.01839427302034    27.41563137586946     4.09060146187960
C          28.75276460032470    28.57724246433768     4.23066045659500
C          28.98126243599538    29.41909917647600     3.14453053545423
O          26.63677977239821    25.99485147423001     2.70697268251428
C          29.74546687579394    30.66680120556810     3.29227723815244
C          30.61109946405785    31.09347785038389     2.28783209875852
C          31.25740302292231    32.31150600022104     2.37129418593967
C          31.04143338688798    33.12023982949729     3.47587265050945
C          30.22148945059421    32.69432849202303     4.51123321596622
C          29.58286377762271    31.47419816018279     4.41676277910021
O          31.54389375119312    34.41285665595873     3.56269635947216
C          27.13014544920421    24.79259510422033     2.92159607878717
N          28.44197729709566    24.62116050117472     2.96343990256443
C          32.82289510024212    34.63766337987570     3.36689939255516
N          33.64768214370961    33.64230308586024     3.09547406768504
H          28.58655708318103    29.72192430858768     1.05852581695905
H          27.25257646021255    27.66312378461585     0.80637144239230
H          27.86103100803688    26.75835670832799     4.93047089612541
H          29.17146585992527    28.82367253858605     5.19408772720927
H          30.78205725348204    30.46386139276497     1.42754314228101
H          31.91395608802483    32.63828614145684     1.58123725790632
H          30.09416441640553    33.33410384091669     5.36953183464891
H          28.92039683135232    31.15823652300952     5.20796871451349
C          52.46490497014794    18.62978036334902     5.46161139757388
C          53.21122117236031    19.79166769106786     5.46897239408729
C          54.06948808191256    20.04195175221176     6.52847978719738
C          54.19148880525071    19.11959427688001     7.56068376482704
C          53.44223151138223    17.95994785654905     7.54027817252111
C          52.55954941595994    17.69812703010798     6.49301480515647
O          54.89393412740996    21.16219292449578     6.59872775332136
C          51.75047624623422    16.47218736315480     6.46598593860581
C          50.45369504792782    16.48448534716434     5.95687644673934
C          49.67851061077240    15.34047407479530     5.92138535543526
C          50.19971477533996    14.15205860016042     6.40850691633307
C          51.49928419360283    14.11620851598157     6.90897555565279
C          52.26235329721703    15.26355449942367     6.93790052881409
O          49.55986545742832    12.92835959123427     6.40001850371034
C          54.40430098085081    22.36537525244600     6.38085001981501
N          53.11905216204807    22.52153796952877     6.10507688088048
C          48.26484075952634    12.74695863309210     6.26525460673839
N          47.39718341580610    13.74351003364625     6.30399880807600
H          51.80962636661786    18.43846425263178     4.62626106735580
H          53.12571960549070    20.48923439494384     4.65363871494052
H          54.87006279396003    19.32884947542158     8.37334530915780
H          53.52387922756304    17.26338524331828     8.36103066525851
H          50.03054135405538    17.40898460989796     5.59486048877700
H          48.68029279244167    15.37247412837105     5.52190345410965
H          51.89416109079789    13.17760055326761     7.26559160118874
H          53.27473817436858    15.21776660862077     7.30972101707396
C          48.50293814896424    17.01074428363706     2.16489721493250
C          47.75043880885497    15.85367099784949     2.19948799898237
C          46.86024380056162    15.64747062780341     3.24219548522411
C          46.73952630679452    16.58390976627889     4.25834908520462
C          47.49998838989615    17.73656958568361     4.21431373017301
C          48.38464236789946    17.97702508399193     3.16318950804289
O          45.99987682098796    14.55352757458812     3.24866854003140
C          49.15404427657706    19.22802799614166     3.09359522678342
C          50.43593348962775    19.26073343489611     2.54857972244050
C          51.15477283259106    20.43940912300535     2.45790725671680
C          50.59741200061718    21.61633486660442     2.93509872004398
C          49.31663844027446    21.60521249973015     3.47882749300975
C          48.60635491361835    20.42603072514265     3.55378481301703
O          51.19319062165771    22.86549303344298     2.86309804339688
C          46.51073890828289    13.33748017396902     3.19289354591867
N          47.81141709149443    13.16677468532387     3.34134566726601
C          52.48558619183073    23.05363734967746     3.03015538189943
N          53.32186464727668    22.03709800899473     3.12896070571283
H          49.16731916525200    17.17893825337551     1.33123219105527
H          47.83902729612269    15.11691993740397     1.41623412838840
H          46.05777280767850    16.40024226453540     5.07304232838271
H          47.41342498365218    18.44973348438248     5.01960716569381
H          50.89013749073781    18.34688563164711     2.19521240924527
H          52.14282262700031    20.43765636406109     2.03036904106141
H          48.89516948938760    22.53015462062889     3.83941083750322
H          47.60485257780363    20.43827671507072     3.95551752978988
C          52.99624156063596    40.32626411429860     5.41387436943035
C          53.66910430404737    41.52807180868515     5.52640993198700
C          53.08649556437437    42.59260442879600     6.19219955783020
C          51.82600513965347    42.44622239705160     6.74550727446487
C          51.15378057123888    41.24428844130470     6.63647939282845
C          51.72781361869298    40.16590640934252     5.96767308168049
C          51.03533118754234    38.87293746996333     5.87113105799429
C          51.12512558771900    38.09521775116757     4.71854184712217
C          50.54101802967447    36.84599616651446     4.65359085197469
C          49.85082655443323    36.36000849657950     5.75318181142770
C          49.71730853390675    37.12899811411422     6.89802626588316
C          50.30755411886006    38.37635002228759     6.95021985909134
O          49.38644375656587    35.04705674685196     5.70600855880804
C          48.10858285401962    34.81332175428372     5.92124030015967
N          47.26945099455539    35.82109695899057     6.06571846462508
H          53.46706451926279    39.49288940220574     4.91337490612890
H          54.65506798692182    41.63338273516567     5.09706535351995
H          51.36446755186972    43.27435737822924     7.26296562252710
H          50.16540304266834    41.14414274608464     7.05873972996686
H          51.65393108335213    38.47482779328551     3.85774997227278
H          50.60900040361987    36.24073446005005     3.76462700102601
H          49.17110805743694    36.74251932433948     7.74441365614650
H          50.23352497095325    38.95768647646783     7.85702139276343
C          48.71911193856442    39.65310264646424     2.62385625940466
C          47.95349308374630    38.50790346042922     2.51730070554173
C          47.17073786848145    38.11268202922704     3.58941975185214
C          47.17538001890049    38.83717833489138     4.77183924510083
C          47.94255875139613    39.98050222627492     4.86445738976191
C          48.71386067713591    40.41653266325228     3.78884465500655
O          46.29083136135738    37.03699201051136     3.50174660234596
C          49.47493765897190    41.67174182296508     3.86590906954278
C          50.73487241463521    41.78764782859601     3.28398353544958
C          51.43213441917226    42.97880784216944     3.34300253597666
C          50.88206724973455    44.07791676451548     3.98019525261878
C          49.62964725037898    43.97639533132141     4.56074791252394
C          48.93261966330842    42.78439514135064     4.50542900981006
C          46.76547474300689    35.83909625226126     3.25370980596789
N          48.05789990794656    35.66152861224493     3.03363542994783
H          49.30305751926123    39.97872145830772     1.77605466541541
H          47.95018604464226    37.93030597107166     1.60649654563145
H          46.57967314135017    38.48612778330958     5.59839934379661
H          47.95055278443360    40.53888057496516     5.78806707628637
H          51.17810552262448    40.93115117385579     2.79890559728793
H          49.19199434272279    44.83182398374463     5.05503370052320
H          47.94619548885047    42.71905105611931     4.94070667659972
C          19.70395546174624    25.69781823864423     5.43879498719798
C          18.32711441920243    25.66037219383269     5.55131871388063
C          17.71048955476720    24.60990335497657     6.20876490934197
C          18.48109134509959    23.59740638102202     6.75408834569754
C          19.85774416766997    23.63570718241609     6.64550258256183
C          20.49060866728073    24.68570665993677     5.98471879466269
C          21.95586656399219    24.75260548218068     5.88848249445349
C          22.57830898628315    25.23286313133892     4.73816860136653
C          23.95070790061524    25.36871930934478     4.67342773726920
C          24.72117322448392    25.01838417194973     5.77123803010788
C          24.12839930509586    24.50614093677538     6.91408859126767
C          22.75461452919407    24.37589596134596     6.96586305647983
O          26.08782258466457    25.28714309604531     5.72436737183098
C          26.93758616776204    24.30303568312013     5.93287338356495
N          26.49352725262230    23.06874939885106     6.07246720817408
H          20.17926775436288    26.53242610849814     4.94463003769304
H          17.73218493038554    26.45706186413560     5.12838482082451
H          18.00562485886540    22.77308155721009     7.26499782431515
H          20.44956386018750    22.83474892552007     7.06197618045866
H          21.98152520856325    25.49773991538132     3.87887138132086
H          24.43633630202271    25.73988508493742     3.78591424217061
H          24.73977838243281    24.23013010588723     7.75913134907244
H          22.29274467480013    24.01086418980749     7.87094215858001
C          22.45310317438974    22.38470709340567     2.61886641905878
C          23.82861470494036    22.30445591714613     2.51674394220965
C          24.56172645943159    21.82192899134017     3.58826389825541
C          23.93013528318054    21.45091037829611     4.76575157097484
C          22.55537955151905    21.53275393188392     4.85368287280413
C          21.79303800204081    21.98534197143797     3.77854177143850
O          25.93476510587845    21.60737741936243     3.50404441813298