506
 energy: -929.185996263553 gnorm: 0.000674855393 xtb: 6.3.0 (preview)
C          14.75792945036609    17.65249497048165     0.89422379679011
C          16.11854303698334    17.61042163758821     0.77955320174158
C          16.92677038655060    17.35858971140575     1.90717619669460
C          16.30744589479032    17.16300788820820     3.16908479491208
C          14.90102240410087    17.22192362659847     3.25471532906313
C          14.14433485950875    17.45609846797949     2.14136644879825
C          18.33005251867737    17.27471856778134     1.80437218998951
C          19.07562525624156    16.98869376249226     2.91313298666097
C          18.47660092284274    16.81287485521516     4.17220951551973
C          17.11923227346280    16.90493511524496     4.29350462557231
O          20.45726461661264    16.77609981724009     2.80895993178626
C          21.24695606121534    17.82064695081014     2.87427224342459
N          20.73042762497473    19.02846328043467     3.04077328331758
H          14.14260105238490    17.83728560943900     0.02629296429302
H          16.60051961069489    17.76379152026445    -0.17449127580193
H          14.43249326580329    17.07153431321943     4.21704165630103
H          18.80653468330244    17.43029738202039     0.84980604314073
H          19.10423015204119    16.59849453450186     5.02394286455713
H          16.64860438086471    16.76912291453657     5.25669365278200
C          20.98659439478956    14.33738920711677    -1.32758899998096
C          21.60690634991072    13.12477436022269    -1.41871545463328
C          22.68971647321098    12.80381211503332    -0.57225947385053
C          23.10761640693476    13.75681094525755     0.39362219711980
C          22.44498661714286    14.99664687488639     0.48448090126554
C          21.42050465651818    15.28030130435299    -0.37625814824530
C          23.36476798181953    11.57044177777625    -0.64927942727245
C          24.41503893154932    11.30105063890523     0.19174122657605
C          24.82957188574671    12.23659207584989     1.15464043786237
C          24.18105354488808    13.43472585424706     1.24780830574909
O          20.70503319811535    16.47044625724516    -0.33488704327176
O          24.95863034598643    10.02469125623444     0.11726253300168
C          26.25640995559297     9.80995146919943     0.17491135271793
C          21.34263432229618    17.61879543955722    -0.21456660431210
N          27.11965820879157    10.81168951366433     0.14632273967650
N          22.66048819293897    17.66472889911939    -0.28120353556266
H          20.16240774894314    14.59956301592111    -1.97260702422433
H          21.27961166518314    12.39818347670761    -2.14763831739679
H          22.75328248454639    15.70920488784043     1.23326993126136
H          23.05420911904268    10.82996785666711    -1.37105210553293
H          25.63686480670021    11.99127045824846     1.82375444175212
H          24.48064641626382    14.15845113587695     1.98815237126305
C          30.80832774193452     6.51374172037246     2.14669269425082
C          32.15608401353383     6.40483245407733     1.96483118263390
C          33.05556203577458     7.16044375916947     2.74614117856804
C          32.53495054328362     8.02590274126109     3.74535300130023
C          31.13925234168528     8.12628667845301     3.91697151194969
C          30.30109589021623     7.39570676406131     3.11958781228152
C          34.44955565388408     7.09165671987568     2.55597727762673
C          35.28736172850315     7.84811184151251     3.33164198657510
C          34.78247668023566     8.69503459537161     4.33420208567886
C          33.43348548760409     8.77910736853159     4.53092512629314
O          28.91715604866463     7.42560100028057     3.24411163616812
O          36.65438267373703     7.67637471869388     3.15788155005880
C          37.43353816836367     8.72874170270957     3.01381775657624
C          28.27258947958499     8.57313328965862     3.27432747358871
N          36.90971870329915     9.94055598196572     2.93308089858316
N          28.92443561013528     9.72252684133205     3.23563347511396
H          30.10904955469811     5.95357030952488     1.54822730333826
H          32.55273060954866     5.74246446883955     1.21068032411380
H          30.74626838872079     8.79555412553594     4.66560226297842
H          34.86368184024540     6.45129348183388     1.79295585272060
H          35.46783001749081     9.27098237281973     4.93497013859972
H          33.03605848784163     9.43348037626763     5.29212323500311
C          38.23033611251993     5.46760426313940    -1.06278480840367
C          38.89626558035311     4.27504245481063    -1.06082356863229
C          39.36974849025755     3.71085112618059     0.14245565331097
C          39.17438928720421     4.42122072641649     1.35544377527483
C          38.49276701090974     5.65473131323068     1.33206538172270
C          38.01851027820058     6.14778855927807     0.14882345967519
C          40.02151278588609     2.46089224490044     0.18191962918073
C          40.45713162827522     1.93897422384488     1.36714287779704
C          40.27202113668478     2.64672958077383     2.56508038499501
C          39.64872433951500     3.86232012766015     2.55986373228699
O          37.22591500330694     7.30293047927105     0.13071972574827
C          37.83118689292719     8.45728807850847    -0.04150254132938
N          39.14973276923629     8.49106477772246    -0.15825748396081
H          37.85176421460213     5.89980495216193    -1.97670038982497
H          39.05962568421773     3.74170785971559    -1.98627984765504
H          38.34250099381835     6.20118255466463     2.24911305668589
H          40.16464332253825     1.92027501834944    -0.74295279702313
H          40.62725034497554     2.21961448020405     3.49116975187632
H          39.50388805404937     4.41553563389108     3.47593117349362
C          21.55897245440446    33.61116331822590    -1.55147915610026
C          22.03498297269813    32.33138892369892    -1.61493860776300
C          22.90837855890873    31.83891868628481    -0.62269302281394
C          23.28264771297478    32.69304900326517     0.44760105492461
C          22.77477213726755    34.00812082842244     0.48340910963885
C          21.93234557192974    34.45711260068177    -0.49492170160380
C          23.42722897291015    30.52886588671513    -0.66392930760636
C          24.27951677061694    30.09482843149980     0.31574617533963
C          24.63925056499916    30.92607577865844     1.39025450788976
C          24.14646080369752    32.19804608529058     1.44606512091975
O          24.71366411328735    28.76949991718038     0.25571456614376
C          26.00688617180655    28.52174790481913     0.27676217760873
N          26.86946312990485    29.52345888187230     0.27422590827669
H          20.89150488668660    33.98246202353651    -2.31537266504545
H          21.75092767772059    31.67856494845559    -2.42774623166361
H          23.06901523098075    34.65156870364939     1.30065781441125
H          23.15472075920022    29.86769546275914    -1.47297951045330
H          25.29147094758558    30.54634922799437     2.15979657208405
H          24.41184003952682    32.84577727933829     2.26704853352418
C          30.56526928681759    25.02235618981198     1.91273976859070
C          31.90707352389442    24.94614603491304     1.67510677764103
C          32.82603423784697    25.67532932205191     2.45919840255274
C          32.32808607347594    26.46971645638979     3.52619611180060
C          30.93849796815039    26.54374765694870     3.75064907842744
C          30.07906019423477    25.84944256241729     2.94347969904062
C          34.21373675869067    25.64164124228981     2.21485448662290
C          35.07027596935817    26.35897385415224     3.00818814130683
C          34.58613428101331    27.12472276143933     4.08529903846066
C          33.24430134751830    27.17953584617178     4.33102338544544
O          28.69822745053023    25.86446033493512     3.11000117428335
O          36.43348894360646    26.21840520654363     2.78978306197377
C          37.21663510674013    27.27692407532824     2.85719065563607
C          28.05401260080612    27.00502413186248     3.24314915607957
N          36.69737494890681    28.49248579519000     2.82051026939815
N          28.70572012169023    28.15416342320570     3.27783264980578
H          29.85489052734581    24.47374920851999     1.31692353641459
H          32.28354749996458    24.32715982601946     0.87514973751493
H          30.56713801982485    27.16526948121362     4.54963654805387
H          34.60750959935640    25.05294009560109     1.40122597766961
H          35.28240480124641    27.66291410010008     4.70839921791748
H          32.86672040266757    27.77401515383600     5.14937869466922
C          37.23031150719530    24.06210624379108    -1.43939815671974
C          37.84459685087924    22.84953925443659    -1.56197062595685
C          38.87027961949613    22.46832778898888    -0.67024198001239
C          39.23260058418927    23.36120229181843     0.37244585872925
C          38.58282132605898    24.60679924780459     0.48826203628919
C          37.61532136562719    24.95021933721310    -0.41521312804238
C          39.52856846113137    21.22655613236339    -0.76799349639752
C          40.51302366544572    20.89127761386718     0.12752625451300
C          40.86967063538934    21.76657340856606     1.16696122541043
C          40.23642239332111    22.97102510101385     1.28064370955578
O          36.91015523338240    26.14658308867446    -0.37081785162103
O          41.04670146382252    19.61217319290864     0.02517568267292
C          42.34053250262414    19.38855636541685     0.13810233357344
C          37.54251534905180    27.29323918948238    -0.22385116865352
N          43.19776080584325    20.39510916879983     0.18518536781212
N          38.85814356944132    27.33350018441428    -0.09175080685047
H          36.44925268462430    24.37038902356085    -2.11698544694036
H          37.55578716119453    22.16861372980376    -2.34905415676757
H          38.85613382163936    25.27422953933646     1.28989251344376
H          39.25610867992282    20.53325299202098    -1.54947901235418
H          41.62059045469484    21.46914190120474     1.87888136690502
H          40.49222904263279    23.64608212047617     2.08081909276064
C          46.75829464456731    15.90305135070466     2.29532932736651
C          48.11462739670669    15.79059797830239     2.20502267698794
C          48.96325982446290    16.56791050811982     3.02125884132447
C          48.38107104417254    17.45808283419602     3.96187693418299
C          46.97672804164849    17.55885937987578     4.04240897021664
C          46.19088262696422    16.80989873575054     3.21061016902838
C          50.36856659265255    16.49766205902691     2.92802415902018
C          51.16196271177133    17.27187571182702     3.72857148820475
C          50.58635760157607    18.14671241183565     4.66363720487129
C          49.22709080297354    18.23635263360728     4.78023666594613
O          44.80061579353905    16.83712803092147     3.23976347314958
C          44.15170761823945    17.97982257863024     3.26649579586622
N          44.79922046931159    19.13213632240911     3.30246620115563
H          46.09801458106688    15.32240970866034     1.67203252153154
H          48.55734153820747    15.10548579927093     1.49727965738626
H          46.53933209085457    18.24242885694514     4.75246701908751
H          50.80666270067165    15.82266472697321     2.20696285996584
H          51.22791958749156    18.75056431526007     5.28841977992994
H          48.77962630046048    18.91360577881239     5.49297035059550
C          25.69031455848051     1.88957866741938    -1.63135746804392
C          26.56326280446755     2.93972175580671    -1.69154585419829
C          26.55444605467287     3.94015588426043    -0.69708212879529
C          25.62631699996689     3.83686398277280     0.37203876915519
C          24.73861251660730     2.74163210272514     0.40447099718415
C          24.76962051832153     1.78977828808998    -0.57603550088817
C          27.43189624164471     5.04282678907735    -0.73510817857201
C          27.38259168088294     5.99598803819594     0.24651442256922
C          26.48173468922016     5.89124074336194     1.32004428356545
C          25.62438539745854     4.83012595596800     1.37276563402248
O          28.31460490293024     7.03374054742555     0.18938001799974
C          27.88279975199648     8.27767116873402     0.21119763772931
N          26.58398011789507     8.52374342576452     0.20706908183044
H          25.70142712100328     1.12759565757417    -2.39697150248665
H          27.27165196810352     3.02022779496065    -2.50346843454543
H          24.03321068670398     2.67471863030283     1.22082573289617
H          28.14156776042661     5.13778207952492    -1.54338665169175
H          26.48496503649735     6.64424983580574     2.09123412391119
H          24.92983217098002     4.73568511295924     2.19289005631903
C          28.59455899910463    13.97089296894897     1.84778611448289
C          27.98445192398939    15.16980873919779     1.61734595228629
C          26.90373934702727    15.60029343807861     2.41580521500746
C          26.47749004452877    14.77025052386051     3.48670930461882
C          27.11342325215315    13.53115735692291     3.70372703851040
C          28.13664374253877    13.13655046860552     2.88541712194789
C          26.23872673434788    16.82113654989569     2.18360783485090
C          25.20164575967607    17.20517845091493     2.99238072751611
C          24.78901173395099    16.39813271416438     4.06911394588995
C          25.41273174619155    15.20655328830636     4.30348212338917
O          28.81995260997195    11.93568667778839     3.04703788477174
O          24.64660532376281    18.46116917985657     2.79316647316694
C          23.33825116492644    18.61078342143260     2.86272807650270
C          28.15738938706242    10.80568945314617     3.18067354578521
N          22.54540261882803    17.55451136901238     2.79548271657518
N          26.83650775402260    10.79386296529409     3.21845984236587
H          29.41730763229188    13.63098699759090     1.24114450235123
H          28.32078405376876    15.80529391961082     0.81241535019185
H          26.77174331214146    12.89805304517755     4.50689967931593
H          26.54260123236336    17.45810406095845     1.36781836478728
H          23.98182139834724    16.73162658441366     4.70171716860017
H          25.09427308096066    14.57950913629874     5.12268776908341
C          42.96409085745792     3.96657891833157     0.80796832854329
C          42.32933107580813     5.16934388106429     0.67872224969513
C          42.09939062815734     5.98489700971399     1.80560239718685
C          42.52131609249057     5.53046112623146     3.08223661516469
C          43.16721670983097     4.28083452132750     3.18211067514651
C          43.38840525159677     3.51977628288154     2.06915211410993
C          41.48219181000915     7.24682841044377     1.68945879349415
C          41.31018076852041     8.02264334617105     2.80088285466699
C          41.70056185408649     7.57401383360550     4.07413625524953
C          42.29024923086590     6.34928358989225     4.20738702565901
O          40.81379835608267     9.32855379452180     2.68507890088463
C          39.51713507040002     9.49817725961796     2.78136336514714
N          38.72882405039004     8.44983542247890     2.96172197784372
H          43.14530196200649     3.34922333223180    -0.05932416553142
H          41.99629438608515     5.52043748745401    -0.28663051446190
H          43.49013035482969     3.93936940783066     4.15543023267468
H          41.15398104838884     7.59643772552914     0.72385931751656
H          41.53468110979581     8.21407065482884     4.92750126458471
H          42.59822741466417     5.99664014981273     5.18128221108778
C          26.20525658521746    20.19474872470667    -1.33224957698993
C          26.96529651597489    21.32371053615134    -1.43321761993108
C          26.74816258709069    22.41769713882343    -0.56778760735778
C          25.74505998859518    22.30642364529474     0.43060030923077
C          24.97834093771462    21.12749329340603     0.52948340038648
C          25.19414412866688    20.10585362254645    -0.35375798252321
C          27.49149105433493    23.61043559606022    -0.66090715848392
C          27.24377881251048    24.65121470432919     0.19902623875772
C          26.26560487401653    24.53996171624302     1.20132561020495
C          25.53902403144555    23.38877638105904     1.30838055679813
O          24.49679814853014    18.90434975743302    -0.33721301102386
O          28.08058104711365    25.75673861149214     0.09758030582160
C          27.62882188739234    26.98963477745906     0.20604266047427
C          23.18666010293177    18.87983562767126    -0.20102139010951
N          26.32959792285843    27.23393167133104     0.25399640331636
N          22.49406466757100    19.99560216865219    -0.04102057257161
H          26.35137097921950    19.35434993349055    -1.99320036681869
H          27.73674684658084    21.39631086314823    -2.18555823382038
H          24.22865659808769    21.04787117684404     1.30000905209611
H          28.26048773938514    23.70820118288827    -1.41250961089327
H          26.11486695285228    25.35265262301557     1.89072902571869
H          24.79134175197986    23.28823006859981     2.07790702716315
C          28.41909252906562    32.53707067013488     2.36138116696633
C          27.83531234805429    33.76754684314147     2.28528232036204
C          26.75382817942300    34.11104951996634     3.12370655734276
C          26.29287477100728    33.15884762627956     4.07087577580338
C          26.91051895088317    31.89277607440192     4.13627173722346
C          27.93640385282292    31.58968919431395     3.28407004177517
C          26.10958086049362    35.36309033177023     3.04641194759509
C          25.05802265472176    35.66019052129761     3.86845376419847
C          24.60679218419490    34.72126072576560     4.80966254254462
C          25.21152041259554    33.49928283175434     4.91104929221712
O          28.60892271328510    30.37192991772600     3.29982439392703
C          27.94197529345119    29.23966684534192     3.33014458516211
N          26.62048054313112    29.22822805440028     3.37337698907766
H          29.23982892319450    32.25826110042279     1.72098198161352
H          28.19252965811044    34.49542463708180     1.57188713611604
H          26.55172148900288    31.16995530256013     4.85160916111934
H          26.46054470756333    36.08219001821925     2.32027858743174
H          23.77533197572112    34.97279129825812     5.45159115104756
H          24.86307887817723    32.77099281926651     5.62879282834879
C          42.68480382399162    11.05402739912661    -1.40116327612136
C          43.42754718478240    12.19701646182948    -1.47434236076125
C          43.16333344128493    13.28431209633326    -0.61418178813116
C          42.12524975383194    13.15941688175696     0.34631007730442
C          41.38029089268188    11.96603129427940     0.41873604561137
C          41.64782800813683    10.94784494491745    -0.45467060284833
C          43.89634788130636    14.48510746920839    -0.67297137288516
C          43.60296082991191    15.51874953526961     0.18030162597753
C          42.58232188002681    15.39972845853167     1.13853354915730
C          41.86636173321266    14.23929280353568     1.21388500168403
O          40.97443626189727     9.73337065815371    -0.43010992567395
O          44.43651328664829    16.62890067487620     0.12112960355960
C          43.96904490790061    17.85834376663301     0.17409948974850
C          39.66239829639173     9.70882831134879    -0.29686577072630
N          42.66898987011879    18.10087484934813     0.14193952029611
N          38.96074327311950    10.82585049344775    -0.35568419960249
H          42.87045934563710    10.21743630454201    -2.05668717303298
H          44.22330579581503    12.28495515072454    -2.19919589382504
H          40.60650549761164    11.86816022369100     1.16379957114170
H          44.69538216574125    14.59465812842549    -1.39075964716121
H          42.39054571193131    16.21371014194779     1.81709994307294
H          41.08646575710804    14.12869950288028     1.94952839986736
C          44.52377723737651    23.43167795924621     2.11260706719488
C          43.93667469884723    24.64891032313796     1.92567100609695
C          42.84109802932326    25.05358939713404     2.71682473582854
C          42.36863355922458    24.17799849471771     3.73087774941214
C          42.98483221384666    22.92206950459635     3.90527581585471
C          44.02816220548766    22.55787537016319     3.09863028592556
C          42.19922788111838    26.29268009567005     2.52498835629004
C          41.13818412024231    26.64635094388432     3.31518182066283
C          40.67400132393044    25.79384181577793     4.33272176609950
C          41.27893180834299    24.58533987126883     4.52994072715915
O          44.69933006835398    21.34743370421396     3.22703489277486
O          40.60143117499393    27.91553123695983     3.14460990353875
C          39.29681678016170    28.06455817697668     3.03739869252627
C          44.03091930497802    20.21368312624815     3.26505558291751
N          38.51123307371832    27.00408508261453     2.95039347093026
N          42.70956666211217    20.20039196986031     3.23214266231238
H          45.35361746533570    23.10524283852848     1.50815182638378
H          44.30039232398891    25.31793938352286     1.16092746406880
H          42.61360402704067    22.25263201670888     4.66488853508112
H          42.53453221826234    26.96507506544863     1.75095341436392
H          39.84332164194408    26.10496700458727     4.94571982974746
H          40.92390080085422    23.92083126393588     5.30330289562946
C          41.88406380014674    30.36266608287558    -1.01079463923414
C          42.59705584690376    31.52673449885462    -0.96124410313997
C          42.76896047591422    32.22042957387228     0.25515732794811
C          42.15925465191548    31.70580503894158     1.42881769409849
C          41.41426031193171    30.51162091840812     1.35469223993020
C          41.30167698420667    29.85240294664955     0.16251123925494
C          43.53414008756944    33.40153195507173     0.34655158168477
C          43.69348515006237    34.03767112966484     1.54529698822206
C          43.08847327368620    33.52884712702768     2.70530393586163
C          42.33397033432230    32.39152282545030     2.64853635147844
O          40.68409071318868    28.59696805957438     0.09397612877317
C          39.37530696969704    28.55220571669563    -0.02095057675233
N          38.68341525187955    29.68002785241816    -0.07778001657186
H          41.76082780152500    29.81634104363965    -1.93357713872568
H          43.04924760712694    31.92609776845000    -1.85769694050470
H          40.94403100239115    30.12096405128218     2.24255128242794
H          43.99802897203156    33.79058157526896    -0.54881646355480
H          43.22552455151096    34.04654442489509     3.64302774128357
H          41.86141632263602    31.99404962669720     3.53443449017451
C          18.37750485511699    21.06103744598920    -0.98216202827012
C          17.01208783105012    21.09102461221840    -0.95836405014937
C          16.30384006842386    20.91474964346327     0.24898850424873
C          17.03355177700422    20.67081085242755     1.44146492057114
C          18.44169891815394    20.63135016518114     1.39474322297422
C          19.08961831262373    20.84217508431113     0.20981469303068
C          14.89666626977998    20.98265474801393     0.31294232109596
C          14.24443197575830    20.82124417438612     1.50270946585507
C          14.96681105303873    20.57446008303905     2.68070651676455
C          16.33028607987423    20.49618107832734     2.65107137633699
O          20.48663972758983    20.94067752556224     0.16957494033642
C          21.17963308879598    19.83392317455434     0.01690382368485
N          20.54709791187963    18.67450648197278    -0.07953832642573
H          18.92834900735410    21.21021613327729    -1.89845442403505
H          16.45588769820539    21.26176394321645    -1.86890687078051
H          19.00066341832853    20.44200513338382     2.29680623626985
H          14.34381353066618    21.17126588892771    -0.59643266495329
H          14.43299495890346    20.44715382961904     3.61076625475314
H          16.89487520273192    20.30368727869090     3.55125067053365
C          34.99319968170836    12.62806369920832    -1.38241835545112
C          33.63543100203746    12.72025069228681    -1.48333177015232
C          32.79745915760309    11.97955276068944    -0.62185898371257
C          33.39633752719916    11.16243143830888     0.37261563660086
C          34.80092940256110    11.08924271193557     0.47129283336849
C          35.57709835090816    11.79254166652090    -0.40822837923381
C          31.39286284419475    12.02532236693285    -0.71514932310619
C          30.61604595300333    11.28563342743314     0.14131226993449
C          31.20219324906502    10.49047464266288     1.14026218041508
C          32.56260021360284    10.43764747182104     1.24681934545517
O          36.96629971362857    11.79177551766754    -0.39420228481370
O          29.24015297553743    11.45661908145657     0.03968349551310
C          28.39834945603826    10.44857279076159     0.14549330719871
C          37.64659016336839    10.67132619770113    -0.26191099923005
N          28.83656320682018     9.20124638991444     0.19068632061598
N          37.03088792362275     9.51277305075855    -0.09117871430518
H          35.64737636334922    13.17925802501289    -2.04021945714399
H          33.18609518056785    13.35521297306129    -2.23257267829775
H          35.24505043228459    10.47628612661527     1.23875839086313
H          30.92315261939646    12.64502918604709    -1.46427239875779
H          30.57389001980716     9.95010099827108     1.82713854225839
H          33.02420479628111     9.83713150334692     2.01338546276539
C          23.18760307490644     8.35842483528548     2.28840930200669
C          22.41333216006094     7.23855862884874     2.20499407866588
C          22.65369686005349     6.12619359926133     3.03890096892871
C          23.70648424011774     6.19783233255513     3.98906102277973
C          24.49505067365001     7.36473090261786     4.06174711568903
C          24.24710533213381     8.40889745485547     3.21402998512258
C          21.89075989075755     4.94326816014688     2.95414453234265
C          22.15618627515224     3.88003687296170     3.77196624832574
C          23.19248753075861     3.95353461634808     4.71626054605669
C          23.94912034726747     5.08708271369859     4.82481553414706
O          24.96554760060471     9.59993494693907     3.23708991147629
C          26.27948635290650     9.58907565402403     3.26836288743047
N          26.95147861474062     8.45116231253688     3.31024354011046
H          23.02094866512929     9.21186138219400     1.65172272094512
H          21.60618198434720     7.18789498741991     1.48926934645347
H          25.29894779500619     7.41149317916816     4.77899715960757
H          21.09438465112780     4.89173089130220     2.22568849182838
H          23.38795069725215     3.10462081480173     5.35483521003159
H          24.75222806873991     5.14546278468677     5.54492747126241
C          34.69965922152142    31.48777540466686    -1.24854265787262
C          33.33917233886344    31.55899511736237    -1.33474278076079
C          32.52178576330722    30.76763191048576    -0.49945976565256
C          33.14046962266401    29.91266774705379     0.45023935011627
C          34.54588568691531    29.86350524377920     0.53556806325276
C          35.30164723180100    30.62350625045699    -0.31406074345616
C          31.11598481085251    30.80106204551423    -0.57238412865400
C          30.35929741441359    30.01285855048214     0.25793605616388
C          30.96449501250826    29.17159666861081     1.20676798825655
C          32.32669992178617    29.13136402688339     1.29462562181901
O          36.69058035146149    30.64724865124776    -0.27781689442549
O          28.98219921472031    30.18040709734907     0.18627840541912
C          28.14707730059935    29.16382303876449     0.24034371273900
C          37.36900728402034    29.51972182407813    -0.19045968046834
N          28.58256704832062    27.91539303727367     0.20705672150227
N          36.74988120831181    28.35585191146920    -0.26626555994321
H          35.33736060720355    32.08145688675474    -1.88489963181295
H          32.87189473588110    32.21847750514571    -2.05106448659380
H          35.01027532134486    29.22691766666854     1.27208310294217
H          30.62826788824550    31.45149249083935    -1.28286749002124
H          30.34999999155793    28.58572440590975     1.86917269919205
H          32.80543854482042    28.49787361592811     2.02334063492655
C          23.01882077509944    26.85690013265059     2.20030130651013
C          22.25165334747628    25.74388480063739     2.01558432101403
C          22.45115161655379    24.58846161037625     2.80016441092892
C          23.45504732858447    24.60823071625347     3.80531481871722
C          24.23909802171060    25.76687650997514     3.97961476523684
C          24.03027903095926    26.85683149571824     3.17935460908253
C          21.69491619606273    23.41565511328368     2.60778419564470
C          21.92563649926363    22.31360418166024     3.38739123018901
C          22.90584708541915    22.32894258077592     4.39554813655414
C          23.65287522418502    23.45492852123855     4.59432414317004
O          24.74787695215552    28.04044732928194     3.30667618041987