507
 energy: -933.734825301302 gnorm: 0.000823673503 xtb: 6.3.0 (preview)
C          14.29679717759787    17.12800175903732     1.57186245996867
C          15.63651245972814    16.97300817678370     1.35146395922417
C          16.57389849530611    17.31502436345706     2.34760346469401
C          16.10476708274937    17.84606425162643     3.57720730617210
C          14.71691378445097    17.99576705783210     3.77206981934438
C          13.83250869225229    17.63746692299567     2.79419137976698
C          17.95802700368899    17.12521712310729     2.16191098977044
C          18.83043324113058    17.44419207741975     3.16479574115633
C          18.37859453887421    17.98678781136640     4.38016603245858
C          17.04252376865047    18.18731856947605     4.57359619107781
O          20.18389956041872    17.15049400593478     2.98490882167744
C          21.04253967234236    18.13803037976568     3.09297698537660
N          20.60590530553713    19.36479076251304     3.32312199892614
H          13.58268375372362    16.85525714488794     0.80851318259246
H          16.00128041847389    16.57838617939552     0.41473528060883
H          14.36519866890859    18.39396225517380     4.71292597449584
H          18.33352152106123    16.72882431378558     1.23226504701363
H          19.09592031256518    18.23263933618385     5.14740291903982
H          16.68370230604953    18.60077595591314     5.50490774325555
C          20.71343838190411    14.20112320813853    -1.12099065738996
C          21.40705261892509    13.03905911586428    -1.30543549093867
C          22.59782352174885    12.78774168880108    -0.58981436657688
C          23.03671168286807    13.75045318569583     0.35692113847205
C          22.28994894118638    14.92583962456965     0.55976727313827
C          21.17160880721813    15.15591914785921    -0.19308979424234
C          23.36455921797868    11.62213213870809    -0.77968074980633
C          24.52862149347612    11.43062120814131    -0.07389936457604
C          24.96865427299219    12.38598662430571     0.85724141284915
C          24.22808558669054    13.51264274870463     1.06776583859808
O          20.40427084036597    16.30603218900649    -0.06037669360719
O          25.15608611209514    10.20941746469236    -0.26228823495613
C          26.45407659169796    10.02258938519662    -0.13612781964196
C          21.01303083244268    17.47186894092896     0.05634599595711
N          27.29669213870417    11.03566566960788    -0.01467961598754
N          22.31708975707808    17.56750699187801    -0.12386093741644
H          19.81347633469257    14.41329940895037    -1.67709513803503
H          21.05921472665557    12.30423124913707    -2.01640745631624
H          22.61731304417858    15.64184499446054     1.29673549832135
H          23.03945302965410    10.87007386460992    -1.48287945534763
H          25.87034453201690    12.21462330008074     1.41608103476870
H          24.55169090641201    14.24660833145445     1.78695187616825
C          30.73507414788619     6.58727319422728     2.04606112825063
C          32.09169434061561     6.46101117510124     1.98911415618793
C          32.92577842352670     7.24299026914704     2.81560286158951
C          32.32917316963352     8.14749584311405     3.73322804736736
C          30.92513787359028     8.26131293439252     3.77949484806555
C          30.15267958474653     7.51237972517200     2.93383771568194
C          34.32939585434191     7.15633242984971     2.75451627156562
C          35.10231925380478     7.93666650925106     3.57247236872419
C          34.52256913158583     8.83034267032297     4.48919746318073
C          33.16177089757502     8.92791847954968     4.56409204548342
O          28.76637525545900     7.55453714535221     2.92049995775192
O          36.47644279175947     7.74089811644560     3.52933690905652
C          37.28083342231929     8.76023562097005     3.31395700441599
C          28.11821869265955     8.69953989514761     2.97508425748639
N          36.79428986872541     9.97801851482324     3.13741889315631
N          28.76307844765934     9.84981126020848     3.06633213655032
H          30.08533867885822     6.00435083038464     1.41439805380818
H          32.54654816605138     5.76401382795995     1.30199202692993
H          30.47692033815503     8.95487014752931     4.47243170010259
H          34.80365705417828     6.48228041815525     2.05831040623140
H          35.16063668933506     9.42920223656587     5.11913864072110
H          32.70407484202164     9.61545354066205     5.25954943315076
C          39.18662990682243     5.62389608605018    -0.13558856270304
C          39.93732777239694     4.49648065467425     0.03322785486374
C          39.92698475320711     3.79093678475554     1.25449887352842
C          39.13997156656566     4.28846092281994     2.32509965285251
C          38.37738099561466     5.45798893582286     2.13428224950166
C          38.39734380264898     6.09860190942680     0.92652201145322
C          40.65626751832873     2.59918711023744     1.43983292963017
C          40.61203414617194     1.93219726173698     2.63163080859573
C          39.84806216434277     2.43402780525987     3.69634397975303
C          39.12969314657875     3.58700053330031     3.54812242098332
O          37.55688542298389     7.19940066441869     0.74439954768989
C          38.11324212582418     8.33955447223094     0.39268560998594
N          39.42942118223915     8.40772486238959     0.27529295513463
H          39.18297417178324     6.15732943921558    -1.07312084811454
H          40.54450815379980     4.12113410097618    -0.77761723047724
H          37.77903579616979     5.85078278202129     2.94009013332397
H          41.24773059544705     2.21978501076723     0.61909463052446
H          39.83038453152617     1.89628385441569     4.63319430407589
H          38.53602696203262     3.97766833510759     4.36144892080558
C          21.12264096157325    33.03865921312658    -2.04567656965171
C          21.63195388108690    31.77076255885815    -2.01059033101593
C          22.66677291080321    31.43626751538096    -1.11195394915162
C          23.16901011623544    32.43741932769565    -0.23975232557040
C          22.62284545643613    33.73603559916573    -0.30205244651836
C          21.62233558114187    34.02987586691958    -1.18579715366665
C          23.22412808268214    30.14327805049247    -1.05802969935414
C          24.23243920593397    29.86096139830212    -0.17394469845147
C          24.71477055174815    30.83811300130627     0.71423104590882
C          24.19224580137362    32.09887422832980     0.66930288131015
O          24.69198535528895    28.54650056067644    -0.14083852276168
C          25.98490647951204    28.30021514301556    -0.11529982778773
N          26.85542942321787    29.28896335800254    -0.22134457555820
H          20.33119028339725    33.28866963233065    -2.73703803947800
H          21.25108953937326    31.00618233625472    -2.67228935165451
H          23.01452596602677    34.49203438821114     0.36388468222777
H          22.85901188498529    29.37141359182408    -1.71888266391992
H          25.48257193641007    30.58172001998138     1.42534751331837
H          24.55807551347913    32.85903887223325     1.34216802717632
C          30.69737191828879    25.10737590160198     1.76291330029021
C          32.04401626731617    25.02029925825227     1.55537777564033
C          32.95150067824296    25.75296734187731     2.35022798535840
C          32.43477827869312    26.57079941326542     3.39100466302194
C          31.04121995691185    26.64926962462478     3.58956731915975
C          30.19492191254344    25.94373869212615     2.77796066441405
C          34.34469090103155    25.70470659264683     2.13935369230759
C          35.19034443120847    26.43264188274971     2.93610440864989
C          34.68439636544240    27.23069964648138     3.97957071925000
C          33.33788931436420    27.29789020466399     4.19471802062143
O          28.81024041560633    25.96745340604968     2.92597208255481
O          36.55559329372686    26.26238468885792     2.76155548700097
C          37.37030885642601    27.29474101701767     2.88014462206825
C          28.17767191486749    27.12222575683083     2.96697977206610
N          36.89399473728361    28.52596635229370     2.79453104279319
N          28.85017553976740    28.25821982248316     2.92812295419337
H          29.99493591629090    24.56459726552353     1.15231322295677
H          32.43315911409442    24.39158239427759     0.76907607621978
H          30.65562947008113    27.28485915896957     4.37057264758106
H          34.75181097691129    25.09239116306858     1.34990247083840
H          35.36837489585388    27.78190276933967     4.60476254840040
H          32.94672066413731    27.91435914480169     4.98999438231878
C          37.25470475145470    24.37838986644871    -1.45465332931972
C          37.80022989922797    23.13446222441225    -1.57488116857891
C          38.84474841106885    22.72191120957244    -0.71943833238154
C          39.30217477307616    23.62099793519305     0.27917734305118
C          38.72641761003851    24.90472613992292     0.38908103726202
C          37.73097316886268    25.27444232301690    -0.47324280008726
C          39.44181001039976    21.45076942015944    -0.82318516537021
C          40.44892237488529    21.08702614447752     0.03411496173686
C          40.88711328357246    21.95883011483345     1.04464814876715
C          40.32259417183422    23.19802016154082     1.15444407924109
O          37.05627939568259    26.48461482920041    -0.44553893272541
O          40.93620536016870    19.78871118855170    -0.08139454467346
C          42.23066674030225    19.54368583003742    -0.06313430276098
C          37.63116509396119    27.63960671879543    -0.18278334745661
N          43.10334441290694    20.53679949460232    -0.04828599796773
N          38.91564412682111    27.73087837599410     0.12509744624991
H          36.45631651133360    24.71111159368602    -2.09975563794415
H          37.44049657822923    22.45099185658162    -2.32975484471726
H          39.07518651596327    25.57356010550184     1.15845568779500
H          39.10566705955760    20.75900758562493    -1.58098527440888
H          41.64926940809091    21.63141674284653     1.73171925529727
H          40.64584356350917    23.87632139956828     1.92677843778818
C          46.61963183444136    15.69777103387239     1.73956598736007
C          47.95703081700726    15.53073623035487     1.53180903650488
C          48.90313701766151    16.30581629128780     2.23556069587571
C          48.43931570426782    17.25005362814410     3.18861410363571
C          47.05217396778885    17.41114208324887     3.38796864609480
C          46.16766196668591    16.66304857991838     2.66082980018063
C          50.29095902997475    16.17596648669264     2.02295183923648
C          51.18044729325956    16.94244409770986     2.72372336146028
C          50.72257803357071    17.86930175461477     3.67352805731964
C          49.38293826741864    18.01906964845972     3.90272602478822
O          44.78699267514497    16.73853754178855     2.80214692938808
C          44.16885619460162    17.89431255419006     2.90130912013956
N          44.83966165049561    19.03385795748158     2.92468060889914
H          45.88561457010970    15.11369093076249     1.20833954125619
H          48.30931207463316    14.80084249720564     0.81795851133386
H          46.70701097843146    18.13802379167420     4.10529471812372
H          50.63846858378000    15.45993688530323     1.29220091257155
H          51.43875764694697    18.46566775097142     4.21952875242628
H          49.02553832672498    18.73734092616422     4.62606112756137
C          26.63696413279618     1.94550636131810    -2.22968202696182
C          27.44652286180346     3.04464592505972    -2.16195569975001
C          27.18436614057395     4.07444223272612    -1.23402295181712
C          26.06746768768837     3.94983000945761    -0.36669931730109
C          25.25123098621081     2.80393402805327    -0.46315497926878
C          25.52975148727768     1.82417698004780    -1.37470856375862
C          27.98987045977301     5.22693884800007    -1.14590346047683
C          27.69769651533890     6.20730085799697    -0.23390999454684
C          26.61203406395472     6.07803627171223     0.64968070864817
C          25.81528500632667     4.97174316999477     0.57157189546526
O          28.57446213153604     7.28714834908488    -0.17049881167575
C          28.10819151151130     8.51615663890642    -0.10407835871179
N          26.80943646480840     8.74450163988939    -0.19438250571647
H          26.84233477088166     1.16098718631839    -2.94329102025864
H          28.29824070784809     3.14238839573709    -2.81962009067067
H          24.40130841026986     2.71968612445808     0.19934304776944
H          28.83947347119997     5.34189965641442    -1.80225663401033
H          26.42552350445946     6.84573502360542     1.38240496070087
H          24.97539377160343     4.86316910217967     1.24024941010699
C          28.49399877219419    14.17807694539389     1.97416212426206
C          27.89268471194163    15.38855047699229     1.78248892800887
C          26.75675413005887    15.76415625382086     2.53202577332708
C          26.26458411739979    14.86460713028114     3.51550952959529
C          26.89507967282900    13.61642113971045     3.69684517863158
C          27.97358134610559    13.27879426106730     2.92517917808881
C          26.09791661086616    16.99432128317831     2.33465187307408
C          25.00071512345198    17.32288897439244     3.08972917825199
C          24.52139008329770    16.44364681141736     4.07874168385366
C          25.14028490522630    15.24289391828742     4.27930202733253
O          28.65211657167043    12.07015607493371     3.05177058493093
O          24.47085443257161    18.59354566555069     2.92698738231000
C          23.17312179194897    18.80763295068557     3.03625763462729
C          27.99084837315459    10.93149735666078     3.05595418858379
N          22.32007014889775    17.79951514146151     2.95903392637436
N          26.67072006524652    10.91183296052707     3.02371884424285
H          29.35671286833989    13.87837995758605     1.40191928251036
H          28.27847273895818    16.07537207704090     1.04474579944546
H          26.50331728110735    12.93099211272814     4.43101657134211
H          26.45663105050145    17.68675405343565     1.58910872806792
H          23.66762514159210    16.72626118722211     4.67292768225685
H          24.77004474394395    14.56292561553990     5.03177236935462
C          43.66976152783221     4.11383773936814     1.59810537471955
C          43.10738310698390     5.33368566036888     1.34690444420797
C          42.36395968458135     6.00160670089435     2.34142266081847
C          42.18688086109615     5.37522470962488     3.60240428240705
C          42.77856584634605     4.11623109036432     3.82901917843624
C          43.51029941844773     3.50316020829640     2.85143732107864
C          41.81197742912495     7.27972767999320     2.12274265808116
C          41.12097120435153     7.90422695303756     3.12312390687407
C          40.92172895439546     7.28489351547347     4.36903643421020
C          41.44153470649344     6.04343771076768     4.59575855649952
O          40.67447006951815     9.21052928076960     2.90834185014420
C          39.38775890561512     9.44149340923908     3.02850459131222
N          38.56530931122357     8.44212638553422     3.29998647508153
H          44.24641356593445     3.61092617035723     0.83545852555470
H          43.22880988718567     5.81203193071803     0.38632779976828
H          42.64750159425974     3.64752064751391     4.79368141724609
H          41.93313534713116     7.76819538349926     1.16947453331881
H          40.36430433091675     7.80416219281569     5.13285201558180
H          41.29820742107886     5.55971264250321     5.55100085381180
C          25.87777210998773    20.01373434995622    -1.26296375264637
C          26.69983190826092    21.09377357833580    -1.39434502352110
C          26.53279165918783    22.22865699578012    -0.57144153957437
C          25.50803692365617    22.21240872158227     0.41056315189388
C          24.66633571843943    21.08635131190903     0.53259640688418
C          24.84333957929535    20.01721055982525    -0.30224809090926
C          27.34645999536571    23.37149737386738    -0.69431285787414
C          27.15316385273348    24.45031427298236     0.13036746395873
C          26.16651758496842    24.42796381081938     1.12995907239445
C          25.36261687294010    23.33069811836832     1.25589670791500
O          24.11034541201508    18.84186193031854    -0.26496246361248
O          28.03646535381733    25.51693498207353    -0.00861224444335
C          27.59752346453485    26.75925070674329    -0.02874598426532
C          22.81721029513437    18.79182457147365    -0.02229038243853
N          26.30042862446761    27.01380018239327    -0.02129930396329
N          22.11242981616682    19.87691900560644     0.25800481689815
H          25.98912547742347    19.13850271302769    -1.88411522576282
H          27.48639663115815    21.09444437501597    -2.13441043789545
H          23.89816116374282    21.08364028538599     1.28803968885411
H          28.12370742961356    23.40012231371277    -1.44323382070797
H          26.06795384147544    25.27023075771634     1.79402862441797
H          24.60030015115846    23.29919983106588     2.01679830221182
C          28.83834955467379    32.55170750691900     1.63496313890683
C          28.33080331145393    33.79267149375384     1.38633881691644
C          27.16790234073386    34.24627095196518     2.04463154965669
C          26.54645469672667    33.39563031512118     2.99574468875071
C          27.08356985677658    32.11378010801175     3.23758336984109
C          28.19270441726177    31.69937493657459     2.55279180878861
C          26.60361623161745    35.51304546447005     1.79011034245689
C          25.47768681107139    35.92225847895740     2.44932957962757
C          24.86846167907969    35.08539595132162     3.39760331657366
C          25.39110829487347    33.85078227859709     3.66652490462244
O          28.80578520293808    30.46546906522079     2.73276694463296
C          28.10910119442822    29.35841880244166     2.86240868518519
N          26.78724009646834    29.37369632918727     2.88907942786879
H          29.72579313759345    32.19177755553354     1.13966031631274
H          28.81491963756250    34.44545305408836     0.67500342825150
H          26.59888850860436    31.46988657979695     3.95324480651187
H          27.07750431007123    36.15446076677885     1.06108693410777
H          23.98042509197736    35.42450390552171     3.91059051419922
H          24.92049079379492    33.19944537270202     4.38849192575680
C          42.89032574702784    10.96473711648384    -1.22091148841305
C          43.57245908870852    12.13384445156633    -1.40152625126468
C          43.21952200846658    13.29415659888089    -0.67906503256779
C          42.15789889195241    13.21392485267809     0.26045216968994
C          41.48344498387139    11.99348330178477     0.45306035198503
C          41.83125554816351    10.90276028487581    -0.29517357475769
C          43.88531356545686    14.52279536976731    -0.85108147171454
C          43.50259609933965    15.62920387146525    -0.13141939804500
C          42.44735267404408    15.55470315733491     0.79299154266182
C          41.80037485901892    14.36810807393236     0.98325666791717
O          41.21391076784846     9.66731809570047    -0.15073413002961
O          44.28904848213583    16.75931883569227    -0.29195378628407
C          43.83498424010511    17.99045577536629    -0.17519085193250
C          39.90171995927027     9.60980086603248    -0.02215444350809
N          42.53986240704610    18.25143160980522    -0.10647331972465
N          39.15915690660161    10.67945204790794    -0.23944343401219
H          43.14214296322979    10.07457965611875    -1.77624700012168
H          44.38580619387874    12.18623956218310    -2.11014308762178
H          40.69381288088189    11.93245584194100     1.18528526411143
H          44.70631202243886    14.59902235566382    -1.54815760415830
H          42.17453379092082    16.42282448895184     1.36514727722114
H          40.99847024565458    14.29751203783928     1.69956112023267
C          44.65960368223065    23.43533053942413     2.06030141042768
C          44.09571757551939    24.67532051550027     1.98639369912284
C          42.99031339420045    25.01695542941784     2.79399870580931
C          42.49007540338397    24.05702209147703     3.71375551917099
C          43.09269565510452    22.78493086916360     3.78236422371716
C          44.13701312321052    22.47948247605109     2.95216831023694
C          42.35750206797221    26.27165064057350     2.70313921074920
C          41.27239411730634    26.55389809239780     3.49045861618544
C          40.77651573407856    25.61431577587964     4.41100069019123
C          41.37974856292057    24.39325603250544     4.51755804810703
O          44.78238083377796    21.25034903797853     2.95993586393005
O          40.74462993575465    27.83563952084751     3.41249205923378
C          39.45466702241010    28.01304975789166     3.21694707957949
C          44.09129718375519    20.12909407616204     2.97146179966451
N          38.64517753948188    26.97769806233132     3.06326657843672
N          42.76951727276234    20.14275549142339     2.99351038509941
H          45.49211562707309    23.15331838763755     1.43690721884661
H          44.48153306129540    25.40939128328465     1.29564812492343
H          42.70369767689958    22.05599279282827     4.47485135893278
H          42.71503447575989    27.01170676416548     2.00417561032293
H          39.92314649303090    25.86896019872696     5.01848524036847
H          41.00304483493360    23.66082867396172     5.21543737619272
C          41.12828285238452    31.28922418350641    -0.25023723182891
C          41.70880727327010    32.51309602049648    -0.08204429427216
C          42.33345669441119    32.86183402024719     1.13350141176298
C          42.32787070060554    31.92492611127190     2.19907435893131
C          41.71644170384391    30.66958033457952     2.00938988863222
C          41.14145560840371    30.36314658590603     0.80730247228632
C          42.97876985986451    34.10124356108095     1.31767039513121
C          43.58791197015428    34.40145113203219     2.50340972873854
C          43.56752817647803    33.48172890675345     3.56303396868490
C          42.94992919098026    32.27165097748647     3.41594286934386
O          40.62532956971272    29.07777271248331     0.62846869444471
C          39.35570990602197    28.97175428319691     0.29732986197439
N          38.62385620058654    30.06741112948168     0.17737945125512
H          40.66142413153543    31.01595183167731    -1.18338548627155
H          41.70679588157333    33.23133941739061    -0.88898284829441
H          41.69756820639999    29.94962308043061     2.81136271651202
H          42.98679632085834    34.80851132443674     0.50090778311792
H          44.04946855735184    33.73909347177754     4.49506202585434
H          42.93313004547170    31.55685517041752     4.22548755515745
C          17.94711127757820    20.09847714719842    -0.21898165887192
C          16.58898466172352    20.04081314657700    -0.09603789036980
C          15.94586916308769    20.47077968837406     1.08325548268569
C          16.73812203448345    20.94124171788326     2.16236652385557
C          18.13952858671078    20.98430935110524     2.02047141602290
C          18.72137457483281    20.58193604838917     0.85021870217486
C          14.54278662421699    20.46732493973656     1.21673700253502
C          13.95011320130201    20.90712048322422     2.36668507477075
C          14.73411510929714    21.35624864548499     3.44033734993534
C          16.09705973094404    21.37092251699440     3.34239257598813
O          20.10187123448081    20.73366251129429     0.71207339363351
C          20.81080826164682    19.66569473961436     0.41267047587994
N          20.20632632273768    18.49354924964630     0.30590484823623
H          18.43954579469048    19.78420798957060    -1.12568725908674
H          15.98426454812020    19.67420579111310    -0.91270463144988
H          18.75656483300990    21.33275487721523     2.83293421738927
H          13.94385800596569    20.11520433723961     0.38925541210850
H          14.24796375951351    21.69477671661874     4.34377007359668
H          16.70701898430934    21.71877171566728     4.16307749843116
C          35.21685871024319    12.29594210265055    -1.55631257167504
C          33.86599967138940    12.43935756655796    -1.67690804444060
C          32.99481391869296    11.87881069356502    -0.71790938779771
C          33.55184276264850    11.16508951993916     0.37597600196825
C          34.95217680064013    11.02328598967831     0.48223588540182
C          35.76182561613316    11.57692206307592    -0.47173579185138
C          31.59565932549145    12.01666794227388    -0.80716927834838
C          30.78633894210547    11.46846754430397     0.15261367272752
C          31.32742073169767    10.76917024958287     1.24452701738750
C          32.68217995164643    10.62503833033403     1.34578262616598
O          37.14679809596886    11.56173625428596    -0.43884873772823
O          29.41714246206920    11.70941945481353     0.05894961188557
C          28.57957664509595    10.69288626184581     0.03052815820115
C          37.85063108252790    10.49063331778348    -0.13554352827640
N          29.04154516615688     9.45432956899682     0.00774735293983
N          37.27105924653877     9.34704332171725     0.19542964041928
H          35.89757999317045    12.72254211238402    -2.27633894885257
H          33.44652371284304    12.98404520108270    -2.51012589376812
H          35.36522156475374    10.48654779792756     1.32115023163530
H          31.16080771763270    12.56049911401499    -1.63221066050994
H          30.66343804317868    10.36666439428142     1.99249977702119
H          33.11402796293482    10.09762928254641     2.18102471001103
C          23.01542371676804     8.69035985744312     1.67660110815133
C          22.22791876954688     7.61374043899985     1.39337107198987
C          22.45768232574537     6.36468016314422     2.00851346442177
C          23.51033897984625     6.25312449210704     2.95396371552593
C          24.31726496036051     7.37651521193741     3.23144834105348
C          24.08325490913342     8.55995871046835     2.58670217704885
C          21.67873258254696     5.22630078169448     1.71641287324892
C          21.92630692548121     4.03210685217290     2.33476805754443
C          22.96028911166377     3.92390882065797     3.27812670493756
C          23.73416052237259     5.00941838447689     3.58252206667080
O          24.81138483039112     9.72389820059915     2.80315447918604
C          26.12076790537646     9.70708361535718     2.91892059396312
N          26.79911980168531     8.57236218879415     2.89654174866049
H          22.85151143241031     9.65042634009491     1.21428662073477
H          21.41593220969022     7.70498807128860     0.68707929245779
H          25.12195413131568     7.27980057307031     3.94198659594575
H          20.88253221306765     5.31520390853260     0.99141211559298
H          23.14162404882734     2.97365749324004     3.75866566056432
H          24.53727904078178     4.92842357056703     4.30041458524117
C          34.64393204582350    31.72845191148675    -1.28828545743479
C          33.28975227695043    31.71162788759054    -1.46301990474732
C          32.48028552138346    30.80878241122632    -0.74008969980450
C          33.09973513020380    29.93936055044162     0.19611167672153
C          34.49338676330613    29.99214413605743     0.38562213991299
C          35.24652556288721    30.85130133772493    -0.36618642594982
C          31.08421591627768    30.74380852737607    -0.90855664265999
C          30.33660379618898    29.84057148505453    -0.19105552775433
C          30.94878424710422    28.97021689080349     0.72610193725253
C          32.29903128297055    29.03189487674394     0.91544784524817
O          36.62445423349914    30.95399485965749    -0.23239328629660
O          28.96379358270790    29.93396749875894    -0.35076439946606
C          28.13189565206294    28.92326976296967    -0.20344943878344
C          37.34548596215244    29.85594965829766    -0.10091842966579
N          28.55870035349960    27.67530334308800    -0.09857160099577
N          36.80172489431946    28.66907654547438    -0.29485531225245
H          35.27511673801190    32.40293078124257    -1.84582566132822
H          32.82280254150930    32.38299180279314    -2.16844615696127
H          34.95465102845565    29.34671736202801     1.11626045993345
H          30.59180241189638    31.40996215545569    -1.60100264400596
H          30.34946107378459    28.28141561191795     1.29285648191428
H          32.77620443042648    28.37853866505584     1.62718127049918
C          23.00772858178848    27.07516839837462     2.13480898232448
C          22.19014432506509    25.98481335203594     2.08246841191660
C          22.44832815903693    24.84845044430426     2.87805688947605
C          23.55663384130886    24.87044614973793     3.76593367493830
C          24.38743887691628    26.00837419433766     3.80886256028059
C          24.12823573526130    27.07245510346170     2.98805845213552
C          21.65203874321902    23.68963837201137     2.80609644871825
C          21.94756868178780    22.60066369118316     3.58363202994632
C          23.03068380751911    22.61999522837560     4.47969297373392
C          23.81433757452464    23.73595305036742     4.56505219573187
O          24.89240339397578    28.23036503103804     2.96685978711309